<?xml version="1.0" encoding="UTF-8"?>

<!-- generated on 2023-10-25 18:34:56 by Eclipse SUMO sumo Version 1.18.0
<configuration xmlns:xsi="http://www.w3.org/2001/XMLSchema-instance" xsi:noNamespaceSchemaLocation="http://sumo.dlr.de/xsd/sumoConfiguration.xsd">

    <input>
        <net-file value="./real-world-simulation-withTLS/xuancheng.net.xml"/>
        <route-files value="./real-world-simulation-withTLS/xuancheng.rou.xml"/>
        <additional-files value="./real-world-simulation-withTLS/add.add.xml,./real-world-simulation-withTLS/newTLS.add.xml"/>
    </input>

    <processing>
        <collision.action value="none"/>
        <time-to-teleport value="300"/>
    </processing>

    <traci_server>
        <remote-port value="52404"/>
    </traci_server>

    <mesoscopic>
        <mesosim value="TRUE"/>
    </mesoscopic>

</configuration>
-->

<meandata xmlns:xsi="http://www.w3.org/2001/XMLSchema-instance" xsi:noNamespaceSchemaLocation="http://sumo.dlr.de/xsd/meandata_file.xsd">
    <interval begin="0.00" end="601.00" id="test_1">
        <edge id="1025_op" sampledSeconds="0.00" departed="1" arrived="0" entered="0" left="0" laneChangedFrom="0" laneChangedTo="0"/>
        <edge id="1025_sa" sampledSeconds="0.72" traveltime="44.89" overlapTraveltime="45.26" density="0.00" laneDensity="0.00" occupancy="0.00" waitingTime="0.00" timeLoss="0.06" speed="13.31" speedRelative="0.96" departed="9" arrived="0" entered="0" left="0" laneChangedFrom="0" laneChangedTo="0"/>
        <edge id="1027_op" sampledSeconds="0.00" departed="5" arrived="0" entered="0" left="0" laneChangedFrom="0" laneChangedTo="0"/>
        <edge id="1027_sa" sampledSeconds="0.00" departed="6" arrived="0" entered="0" left="0" laneChangedFrom="0" laneChangedTo="0"/>
        <edge id="1047_op" sampledSeconds="0.00" departed="1" arrived="0" entered="0" left="0" laneChangedFrom="0" laneChangedTo="0"/>
        <edge id="1047_sa" sampledSeconds="0.37" traveltime="35.17" overlapTraveltime="35.49" density="0.00" laneDensity="0.00" occupancy="0.00" waitingTime="0.00" timeLoss="0.00" speed="15.57" speedRelative="1.12" departed="7" arrived="0" entered="0" left="0" laneChangedFrom="0" laneChangedTo="0"/>
        <edge id="1214_op" sampledSeconds="0.00" departed="4" arrived="0" entered="0" left="0" laneChangedFrom="0" laneChangedTo="0"/>
        <edge id="1214_sa" sampledSeconds="1.35" traveltime="29.30" overlapTraveltime="29.67" density="0.01" laneDensity="0.00" occupancy="0.00" waitingTime="0.00" timeLoss="0.00" speed="13.37" speedRelative="0.96" departed="8" arrived="0" entered="1" left="0" laneChangedFrom="0" laneChangedTo="0"/>
        <edge id="1215_op" sampledSeconds="0.55" traveltime="27.47" overlapTraveltime="27.95" density="0.00" laneDensity="0.00" occupancy="0.00" waitingTime="0.00" timeLoss="0.16" speed="10.45" speedRelative="0.75" departed="8" arrived="0" entered="0" left="0" laneChangedFrom="0" laneChangedTo="0"/>
        <edge id="1215_sa" sampledSeconds="0.00" departed="8" arrived="0" entered="0" left="0" laneChangedFrom="0" laneChangedTo="0"/>
        <edge id="1216_op" sampledSeconds="0.54" traveltime="38.93" overlapTraveltime="39.25" density="0.00" laneDensity="0.00" occupancy="0.00" waitingTime="0.00" timeLoss="0.00" speed="15.59" speedRelative="1.12" departed="7" arrived="0" entered="0" left="0" laneChangedFrom="0" laneChangedTo="0"/>
        <edge id="1216_sa" sampledSeconds="0.13" traveltime="46.46" overlapTraveltime="46.84" density="0.00" laneDensity="0.00" occupancy="0.00" waitingTime="0.00" timeLoss="0.00" speed="13.07" speedRelative="0.94" departed="0" arrived="0" entered="0" left="0" laneChangedFrom="0" laneChangedTo="0"/>
        <edge id="1217_op" sampledSeconds="0.00" departed="8" arrived="0" entered="0" left="0" laneChangedFrom="0" laneChangedTo="0"/>
        <edge id="1217_sa" sampledSeconds="0.55" traveltime="19.94" overlapTraveltime="20.27" density="0.00" laneDensity="0.00" occupancy="0.00" waitingTime="0.00" timeLoss="0.00" speed="15.17" speedRelative="1.09" departed="6" arrived="0" entered="0" left="0" laneChangedFrom="0" laneChangedTo="0"/>
        <edge id="1220_op" sampledSeconds="0.84" traveltime="41.73" overlapTraveltime="42.11" density="0.00" laneDensity="0.00" occupancy="0.00" waitingTime="0.00" timeLoss="0.00" speed="13.40" speedRelative="0.96" departed="0" arrived="0" entered="0" left="0" laneChangedFrom="0" laneChangedTo="0"/>
        <edge id="1220_sa" sampledSeconds="0.00" departed="8" arrived="0" entered="0" left="0" laneChangedFrom="0" laneChangedTo="0"/>
        <edge id="1221_op" sampledSeconds="0.00" departed="1" arrived="0" entered="0" left="0" laneChangedFrom="0" laneChangedTo="0"/>
        <edge id="1221_sa" sampledSeconds="0.00" departed="8" arrived="0" entered="0" left="0" laneChangedFrom="0" laneChangedTo="0"/>
        <edge id="1222_op" sampledSeconds="0.00" departed="0" arrived="0" entered="0" left="0" laneChangedFrom="0" laneChangedTo="0"/>
        <edge id="1222_sa" sampledSeconds="0.24" traveltime="16.52" overlapTraveltime="16.87" density="0.00" laneDensity="0.00" occupancy="0.00" waitingTime="0.00" timeLoss="0.00" speed="14.33" speedRelative="1.03" departed="0" arrived="0" entered="0" left="0" laneChangedFrom="0" laneChangedTo="0"/>
        <edge id="1229_op" sampledSeconds="1.07" traveltime="47.55" overlapTraveltime="48.01" density="0.00" laneDensity="0.00" occupancy="0.00" waitingTime="0.00" timeLoss="0.30" speed="10.88" speedRelative="0.78" departed="7" arrived="0" entered="0" left="0" laneChangedFrom="0" laneChangedTo="0"/>
        <edge id="1229_sa" sampledSeconds="0.00" departed="7" arrived="0" entered="0" left="0" laneChangedFrom="0" laneChangedTo="0"/>
        <edge id="15207_op" sampledSeconds="0.00" departed="0" arrived="0" entered="0" left="0" laneChangedFrom="0" laneChangedTo="0"/>
        <edge id="15207_sa" sampledSeconds="0.00" departed="0" arrived="0" entered="0" left="0" laneChangedFrom="0" laneChangedTo="0"/>
        <edge id="15217_op" sampledSeconds="0.00" departed="0" arrived="0" entered="0" left="0" laneChangedFrom="0" laneChangedTo="0"/>
        <edge id="15217_sa" sampledSeconds="0.00" departed="1" arrived="0" entered="0" left="0" laneChangedFrom="0" laneChangedTo="0"/>
        <edge id="15342_op" sampledSeconds="0.90" traveltime="94.66" overlapTraveltime="95.05" density="0.00" laneDensity="0.00" occupancy="0.00" waitingTime="0.00" timeLoss="0.00" speed="12.76" speedRelative="0.92" departed="8" arrived="0" entered="0" left="0" laneChangedFrom="0" laneChangedTo="0"/>
        <edge id="15342_sa" sampledSeconds="1.77" traveltime="84.85" overlapTraveltime="85.21" density="0.00" laneDensity="0.00" occupancy="0.00" waitingTime="0.00" timeLoss="0.01" speed="14.24" speedRelative="1.03" departed="4" arrived="0" entered="0" left="0" laneChangedFrom="0" laneChangedTo="0"/>
        <edge id="21138_op" sampledSeconds="0.00" departed="8" arrived="0" entered="0" left="0" laneChangedFrom="0" laneChangedTo="0"/>
        <edge id="21138_sa" sampledSeconds="0.00" departed="0" arrived="0" entered="0" left="0" laneChangedFrom="0" laneChangedTo="0"/>
        <edge id="21139_op" sampledSeconds="0.00" departed="0" arrived="0" entered="0" left="0" laneChangedFrom="0" laneChangedTo="0"/>
        <edge id="21139_sa" sampledSeconds="0.30" traveltime="30.87" overlapTraveltime="31.22" density="0.00" laneDensity="0.00" occupancy="0.00" waitingTime="0.00" timeLoss="0.00" speed="14.47" speedRelative="1.04" departed="0" arrived="0" entered="0" left="0" laneChangedFrom="0" laneChangedTo="0"/>
        <edge id="21140_op" sampledSeconds="0.00" departed="0" arrived="0" entered="0" left="0" laneChangedFrom="0" laneChangedTo="0"/>
        <edge id="21140_sa" sampledSeconds="0.00" departed="0" arrived="0" entered="0" left="0" laneChangedFrom="0" laneChangedTo="0"/>
        <edge id="21184_op" sampledSeconds="2.10" traveltime="40.63" overlapTraveltime="41.02" density="0.01" laneDensity="0.00" occupancy="0.00" waitingTime="0.00" timeLoss="0.20" speed="12.71" speedRelative="0.91" departed="7" arrived="0" entered="1" left="0" laneChangedFrom="0" laneChangedTo="0"/>
        <edge id="21184_sa" sampledSeconds="0.62" traveltime="36.90" overlapTraveltime="37.26" density="0.00" laneDensity="0.00" occupancy="0.00" waitingTime="0.00" timeLoss="0.00" speed="14.04" speedRelative="1.01" departed="8" arrived="0" entered="0" left="0" laneChangedFrom="0" laneChangedTo="0"/>
        <edge id="21185_op" sampledSeconds="1.04" traveltime="29.63" overlapTraveltime="30.02" density="0.00" laneDensity="0.00" occupancy="0.00" waitingTime="0.00" timeLoss="0.00" speed="13.11" speedRelative="0.94" departed="8" arrived="0" entered="1" left="0" laneChangedFrom="0" laneChangedTo="0"/>
        <edge id="21185_sa" sampledSeconds="0.00" departed="1" arrived="0" entered="0" left="0" laneChangedFrom="0" laneChangedTo="0"/>
        <edge id="21186_op" sampledSeconds="0.00" departed="5" arrived="0" entered="0" left="0" laneChangedFrom="0" laneChangedTo="0"/>
        <edge id="21186_sa" sampledSeconds="0.11" traveltime="26.51" overlapTraveltime="26.94" density="0.00" laneDensity="0.00" occupancy="0.00" waitingTime="0.00" timeLoss="0.01" speed="11.66" speedRelative="0.84" departed="1" arrived="0" entered="1" left="0" laneChangedFrom="0" laneChangedTo="0"/>
        <edge id="21187_op" sampledSeconds="0.51" traveltime="72.33" overlapTraveltime="72.72" density="0.00" laneDensity="0.00" occupancy="0.00" waitingTime="0.00" timeLoss="0.00" speed="12.94" speedRelative="0.93" departed="6" arrived="0" entered="1" left="0" laneChangedFrom="0" laneChangedTo="0"/>
        <edge id="21187_sa" sampledSeconds="0.58" traveltime="71.53" overlapTraveltime="71.91" density="0.00" laneDensity="0.00" occupancy="0.00" waitingTime="0.00" timeLoss="0.05" speed="13.06" speedRelative="0.94" departed="2" arrived="0" entered="1" left="0" laneChangedFrom="0" laneChangedTo="0"/>
        <edge id="21190_op" sampledSeconds="0.00" departed="0" arrived="0" entered="0" left="0" laneChangedFrom="0" laneChangedTo="0"/>
        <edge id="21190_sa" sampledSeconds="0.00" departed="0" arrived="0" entered="0" left="0" laneChangedFrom="0" laneChangedTo="0"/>
        <edge id="21192_op" sampledSeconds="0.00" departed="1" arrived="0" entered="0" left="0" laneChangedFrom="0" laneChangedTo="0"/>
        <edge id="21192_sa" sampledSeconds="0.00" departed="0" arrived="0" entered="0" left="0" laneChangedFrom="0" laneChangedTo="0"/>
        <edge id="21193_op" sampledSeconds="0.00" departed="0" arrived="0" entered="0" left="0" laneChangedFrom="0" laneChangedTo="0"/>
        <edge id="21193_sa" sampledSeconds="0.00" departed="0" arrived="0" entered="0" left="0" laneChangedFrom="0" laneChangedTo="0"/>
        <edge id="21194_op" sampledSeconds="0.00" departed="3" arrived="0" entered="0" left="0" laneChangedFrom="0" laneChangedTo="0"/>
        <edge id="21194_sa" sampledSeconds="0.04" traveltime="74.44" overlapTraveltime="74.83" density="0.00" laneDensity="0.00" occupancy="0.00" waitingTime="0.00" timeLoss="0.00" speed="12.92" speedRelative="0.93" departed="4" arrived="0" entered="0" left="0" laneChangedFrom="0" laneChangedTo="0"/>
        <edge id="21197_op" sampledSeconds="0.00" departed="0" arrived="0" entered="0" left="0" laneChangedFrom="0" laneChangedTo="0"/>
        <edge id="21197_sa" sampledSeconds="0.00" departed="0" arrived="0" entered="0" left="0" laneChangedFrom="0" laneChangedTo="0"/>
        <edge id="21198_op" sampledSeconds="0.00" departed="0" arrived="0" entered="0" left="0" laneChangedFrom="0" laneChangedTo="0"/>
        <edge id="21198_sa" sampledSeconds="0.83" traveltime="44.00" overlapTraveltime="44.42" density="0.00" laneDensity="0.00" occupancy="0.00" waitingTime="0.00" timeLoss="0.00" speed="11.83" speedRelative="0.85" departed="0" arrived="0" entered="0" left="0" laneChangedFrom="0" laneChangedTo="0"/>
        <edge id="21199_op" sampledSeconds="0.00" departed="0" arrived="0" entered="0" left="0" laneChangedFrom="0" laneChangedTo="0"/>
        <edge id="21199_sa" sampledSeconds="0.00" departed="0" arrived="0" entered="0" left="0" laneChangedFrom="0" laneChangedTo="0"/>
        <edge id="21203_op" sampledSeconds="0.00" departed="0" arrived="0" entered="0" left="0" laneChangedFrom="0" laneChangedTo="0"/>
        <edge id="21203_sa" sampledSeconds="0.00" departed="0" arrived="0" entered="0" left="0" laneChangedFrom="0" laneChangedTo="0"/>
        <edge id="21204_op" sampledSeconds="0.00" departed="0" arrived="0" entered="0" left="0" laneChangedFrom="0" laneChangedTo="0"/>
        <edge id="21204_sa" sampledSeconds="0.00" departed="3" arrived="0" entered="0" left="0" laneChangedFrom="0" laneChangedTo="0"/>
        <edge id="21205_op" sampledSeconds="0.00" departed="7" arrived="0" entered="0" left="0" laneChangedFrom="0" laneChangedTo="0"/>
        <edge id="21205_sa" sampledSeconds="0.00" departed="1" arrived="0" entered="0" left="0" laneChangedFrom="0" laneChangedTo="0"/>
        <edge id="21207_op" sampledSeconds="0.40" traveltime="43.51" overlapTraveltime="43.85" density="0.00" laneDensity="0.00" occupancy="0.00" waitingTime="0.00" timeLoss="0.00" speed="14.44" speedRelative="1.04" departed="10" arrived="0" entered="0" left="0" laneChangedFrom="0" laneChangedTo="0"/>
        <edge id="21207_sa" sampledSeconds="1.00" traveltime="47.67" overlapTraveltime="48.05" density="0.00" laneDensity="0.00" occupancy="0.00" waitingTime="0.00" timeLoss="0.00" speed="13.17" speedRelative="0.95" departed="0" arrived="0" entered="1" left="0" laneChangedFrom="0" laneChangedTo="0"/>
        <edge id="21208_op" sampledSeconds="0.00" departed="0" arrived="0" entered="0" left="0" laneChangedFrom="0" laneChangedTo="0"/>
        <edge id="21208_sa" sampledSeconds="0.00" departed="9" arrived="0" entered="0" left="0" laneChangedFrom="0" laneChangedTo="0"/>
        <edge id="21209_op" sampledSeconds="0.00" departed="1" arrived="0" entered="0" left="0" laneChangedFrom="0" laneChangedTo="0"/>
        <edge id="21209_sa" sampledSeconds="0.66" traveltime="51.58" overlapTraveltime="51.91" density="0.00" laneDensity="0.00" occupancy="0.00" waitingTime="0.00" timeLoss="0.00" speed="15.23" speedRelative="1.10" departed="2" arrived="0" entered="0" left="0" laneChangedFrom="0" laneChangedTo="0"/>
        <edge id="21211_op" sampledSeconds="0.00" departed="1" arrived="0" entered="0" left="0" laneChangedFrom="0" laneChangedTo="0"/>
        <edge id="21211_sa" sampledSeconds="1.20" traveltime="52.15" overlapTraveltime="52.50" density="0.00" laneDensity="0.00" occupancy="0.00" waitingTime="0.00" timeLoss="0.07" speed="14.19" speedRelative="1.02" departed="8" arrived="0" entered="0" left="0" laneChangedFrom="0" laneChangedTo="0"/>
        <edge id="21212_op" sampledSeconds="0.00" departed="0" arrived="0" entered="0" left="0" laneChangedFrom="0" laneChangedTo="0"/>
        <edge id="21212_sa" sampledSeconds="0.00" departed="10" arrived="0" entered="0" left="0" laneChangedFrom="0" laneChangedTo="0"/>
        <edge id="21214_op" sampledSeconds="0.00" departed="8" arrived="0" entered="0" left="0" laneChangedFrom="0" laneChangedTo="0"/>
        <edge id="21214_sa" sampledSeconds="0.00" departed="4" arrived="0" entered="0" left="0" laneChangedFrom="0" laneChangedTo="0"/>
        <edge id="21215_op" sampledSeconds="1.05" traveltime="54.16" overlapTraveltime="54.52" density="0.00" laneDensity="0.00" occupancy="0.00" waitingTime="0.00" timeLoss="0.03" speed="13.94" speedRelative="1.00" departed="5" arrived="0" entered="0" left="0" laneChangedFrom="0" laneChangedTo="0"/>
        <edge id="21215_sa" sampledSeconds="1.24" traveltime="53.47" overlapTraveltime="53.82" density="0.00" laneDensity="0.00" occupancy="0.00" waitingTime="0.00" timeLoss="0.00" speed="14.12" speedRelative="1.02" departed="1" arrived="0" entered="0" left="0" laneChangedFrom="0" laneChangedTo="0"/>
        <edge id="21217_op" sampledSeconds="0.00" departed="4" arrived="0" entered="0" left="0" laneChangedFrom="0" laneChangedTo="0"/>
        <edge id="21217_sa" sampledSeconds="0.00" departed="0" arrived="0" entered="0" left="0" laneChangedFrom="0" laneChangedTo="0"/>
        <edge id="21218_op" sampledSeconds="0.00" departed="1" arrived="0" entered="0" left="0" laneChangedFrom="0" laneChangedTo="0"/>
        <edge id="21218_sa" sampledSeconds="0.00" departed="3" arrived="0" entered="0" left="0" laneChangedFrom="0" laneChangedTo="0"/>
        <edge id="21219_op" sampledSeconds="0.01" traveltime="38.33" overlapTraveltime="38.65" density="0.00" laneDensity="0.00" occupancy="0.00" waitingTime="0.00" timeLoss="0.00" speed="15.69" speedRelative="1.13" departed="3" arrived="0" entered="0" left="0" laneChangedFrom="0" laneChangedTo="0"/>
        <edge id="21219_sa" sampledSeconds="0.00" departed="5" arrived="0" entered="0" left="0" laneChangedFrom="0" laneChangedTo="0"/>
        <edge id="21220_op" sampledSeconds="0.00" departed="0" arrived="0" entered="0" left="0" laneChangedFrom="0" laneChangedTo="0"/>
        <edge id="21220_sa" sampledSeconds="0.00" departed="7" arrived="0" entered="0" left="0" laneChangedFrom="0" laneChangedTo="0"/>
        <edge id="21221_op" sampledSeconds="0.00" departed="0" arrived="0" entered="0" left="0" laneChangedFrom="0" laneChangedTo="0"/>
        <edge id="21221_sa" sampledSeconds="0.00" departed="0" arrived="0" entered="0" left="0" laneChangedFrom="0" laneChangedTo="0"/>
        <edge id="21222_op" sampledSeconds="0.00" departed="2" arrived="0" entered="0" left="0" laneChangedFrom="0" laneChangedTo="0"/>
        <edge id="21222_sa" sampledSeconds="0.00" departed="0" arrived="0" entered="0" left="0" laneChangedFrom="0" laneChangedTo="0"/>
        <edge id="21223_op" sampledSeconds="0.00" departed="0" arrived="0" entered="0" left="0" laneChangedFrom="0" laneChangedTo="0"/>
        <edge id="21223_sa" sampledSeconds="0.00" departed="0" arrived="0" entered="0" left="0" laneChangedFrom="0" laneChangedTo="0"/>
        <edge id="21224_op" sampledSeconds="0.00" departed="0" arrived="0" entered="0" left="0" laneChangedFrom="0" laneChangedTo="0"/>
        <edge id="21224_sa" sampledSeconds="0.00" departed="0" arrived="0" entered="0" left="0" laneChangedFrom="0" laneChangedTo="0"/>
        <edge id="21225_op" sampledSeconds="0.00" departed="0" arrived="0" entered="0" left="0" laneChangedFrom="0" laneChangedTo="0"/>
        <edge id="21225_sa" sampledSeconds="0.00" departed="0" arrived="0" entered="0" left="0" laneChangedFrom="0" laneChangedTo="0"/>
        <edge id="21226_op" sampledSeconds="0.00" departed="0" arrived="0" entered="0" left="0" laneChangedFrom="0" laneChangedTo="0"/>
        <edge id="21226_sa" sampledSeconds="0.00" departed="0" arrived="0" entered="0" left="0" laneChangedFrom="0" laneChangedTo="0"/>
        <edge id="21227_op" sampledSeconds="0.21" traveltime="40.72" overlapTraveltime="41.09" density="0.00" laneDensity="0.00" occupancy="0.00" waitingTime="0.00" timeLoss="0.00" speed="13.51" speedRelative="0.97" departed="8" arrived="0" entered="0" left="0" laneChangedFrom="0" laneChangedTo="0"/>
        <edge id="21227_sa" sampledSeconds="0.00" departed="3" arrived="0" entered="0" left="0" laneChangedFrom="0" laneChangedTo="0"/>
        <edge id="21228_op" sampledSeconds="0.00" departed="8" arrived="0" entered="0" left="0" laneChangedFrom="0" laneChangedTo="0"/>
        <edge id="21228_sa" sampledSeconds="0.00" departed="4" arrived="0" entered="0" left="0" laneChangedFrom="0" laneChangedTo="0"/>
        <edge id="21229_op" sampledSeconds="1.63" traveltime="48.85" overlapTraveltime="49.22" density="0.00" laneDensity="0.00" occupancy="0.00" waitingTime="0.00" timeLoss="0.01" speed="13.44" speedRelative="0.97" departed="3" arrived="0" entered="1" left="0" laneChangedFrom="0" laneChangedTo="0"/>
        <edge id="21229_sa" sampledSeconds="0.50" traveltime="41.85" overlapTraveltime="42.16" density="0.00" laneDensity="0.00" occupancy="0.00" waitingTime="0.00" timeLoss="0.00" speed="15.70" speedRelative="1.13" departed="1" arrived="0" entered="1" left="0" laneChangedFrom="0" laneChangedTo="0"/>
        <edge id="21230_op" sampledSeconds="0.97" traveltime="39.49" overlapTraveltime="39.82" density="0.00" laneDensity="0.00" occupancy="0.00" waitingTime="0.00" timeLoss="0.00" speed="14.88" speedRelative="1.07" departed="7" arrived="0" entered="0" left="0" laneChangedFrom="0" laneChangedTo="0"/>
        <edge id="21230_sa" sampledSeconds="0.00" departed="4" arrived="0" entered="0" left="0" laneChangedFrom="0" laneChangedTo="0"/>
        <edge id="21231_op" sampledSeconds="0.70" traveltime="39.49" overlapTraveltime="39.83" density="0.00" laneDensity="0.00" occupancy="0.00" waitingTime="0.00" timeLoss="0.00" speed="14.47" speedRelative="1.04" departed="0" arrived="0" entered="0" left="0" laneChangedFrom="0" laneChangedTo="0"/>
        <edge id="21231_sa" sampledSeconds="1.23" traveltime="45.34" overlapTraveltime="45.74" density="0.00" laneDensity="0.00" occupancy="0.00" waitingTime="0.00" timeLoss="0.17" speed="12.60" speedRelative="0.91" departed="9" arrived="0" entered="0" left="0" laneChangedFrom="0" laneChangedTo="0"/>
        <edge id="21232_op" sampledSeconds="0.00" departed="9" arrived="0" entered="0" left="0" laneChangedFrom="0" laneChangedTo="0"/>
        <edge id="21232_sa" sampledSeconds="0.00" departed="3" arrived="0" entered="0" left="0" laneChangedFrom="0" laneChangedTo="0"/>
        <edge id="21233_op" sampledSeconds="0.00" departed="2" arrived="0" entered="0" left="0" laneChangedFrom="0" laneChangedTo="0"/>
        <edge id="21233_sa" sampledSeconds="0.00" departed="8" arrived="0" entered="0" left="0" laneChangedFrom="0" laneChangedTo="0"/>
        <edge id="21234_op" sampledSeconds="0.00" departed="0" arrived="0" entered="0" left="0" laneChangedFrom="0" laneChangedTo="0"/>
        <edge id="21234_sa" sampledSeconds="0.00" departed="0" arrived="0" entered="0" left="0" laneChangedFrom="0" laneChangedTo="0"/>
        <edge id="21235_op" sampledSeconds="0.62" traveltime="71.46" overlapTraveltime="71.88" density="0.00" laneDensity="0.00" occupancy="0.00" waitingTime="0.00" timeLoss="0.06" speed="12.00" speedRelative="0.86" departed="1" arrived="0" entered="0" left="0" laneChangedFrom="0" laneChangedTo="0"/>
        <edge id="21235_sa" sampledSeconds="0.00" departed="0" arrived="0" entered="0" left="0" laneChangedFrom="0" laneChangedTo="0"/>
        <edge id="21236_op" sampledSeconds="0.38" traveltime="37.71" overlapTraveltime="38.08" density="0.00" laneDensity="0.00" occupancy="0.00" waitingTime="0.00" timeLoss="0.00" speed="13.73" speedRelative="0.99" departed="4" arrived="0" entered="0" left="0" laneChangedFrom="0" laneChangedTo="0"/>
        <edge id="21236_sa" sampledSeconds="0.00" departed="2" arrived="0" entered="0" left="0" laneChangedFrom="0" laneChangedTo="0"/>
        <edge id="21237_op" sampledSeconds="0.34" traveltime="34.21" overlapTraveltime="34.60" density="0.00" laneDensity="0.00" occupancy="0.00" waitingTime="0.00" timeLoss="0.00" speed="12.88" speedRelative="0.93" departed="2" arrived="0" entered="1" left="0" laneChangedFrom="0" laneChangedTo="0"/>
        <edge id="21237_sa" sampledSeconds="0.00" departed="10" arrived="0" entered="0" left="0" laneChangedFrom="0" laneChangedTo="0"/>
        <edge id="30191_op" sampledSeconds="0.00" departed="8" arrived="0" entered="0" left="0" laneChangedFrom="0" laneChangedTo="0"/>
        <edge id="30191_sa" sampledSeconds="0.00" departed="8" arrived="0" entered="0" left="0" laneChangedFrom="0" laneChangedTo="0"/>
        <edge id="30198_op" sampledSeconds="0.55" traveltime="45.14" overlapTraveltime="45.47" density="0.00" laneDensity="0.00" occupancy="0.00" waitingTime="0.00" timeLoss="0.00" speed="14.96" speedRelative="1.08" departed="9" arrived="0" entered="0" left="0" laneChangedFrom="0" laneChangedTo="0"/>
        <edge id="30198_sa" sampledSeconds="0.00" departed="0" arrived="0" entered="0" left="0" laneChangedFrom="0" laneChangedTo="0"/>
        <edge id="8008_op" sampledSeconds="0.00" departed="7" arrived="0" entered="0" left="0" laneChangedFrom="0" laneChangedTo="0"/>
        <edge id="8008_sa" sampledSeconds="0.00" departed="0" arrived="0" entered="0" left="0" laneChangedFrom="0" laneChangedTo="0"/>
        <edge id="8009_op" sampledSeconds="0.00" departed="3" arrived="0" entered="0" left="0" laneChangedFrom="0" laneChangedTo="0"/>
        <edge id="8009_sa" sampledSeconds="0.00" departed="4" arrived="0" entered="0" left="0" laneChangedFrom="0" laneChangedTo="0"/>
    </interval>
    <interval begin="601.00" end="1200.00" id="test_1">
        <edge id="1025_op" sampledSeconds="3051.93" traveltime="45.28" overlapTraveltime="45.66" density="8.52" laneDensity="4.26" occupancy="2.13" waitingTime="0.00" timeLoss="75.76" speed="13.20" speedRelative="0.95" departed="2" arrived="39" entered="64" left="26" laneChangedFrom="0" laneChangedTo="0"/>
        <edge id="1025_sa" sampledSeconds="4818.66" traveltime="48.78" overlapTraveltime="49.19" density="13.46" laneDensity="6.73" occupancy="3.37" waitingTime="0.00" timeLoss="594.29" speed="12.25" speedRelative="0.88" departed="72" arrived="45" entered="20" left="53" laneChangedFrom="0" laneChangedTo="0"/>
        <edge id="1027_op" sampledSeconds="2841.80" traveltime="41.88" overlapTraveltime="42.25" density="8.38" laneDensity="4.19" occupancy="2.10" waitingTime="0.00" timeLoss="100.82" speed="13.51" speedRelative="0.97" departed="8" arrived="0" entered="57" left="67" laneChangedFrom="0" laneChangedTo="0"/>
        <edge id="1027_sa" sampledSeconds="4074.22" traveltime="43.51" overlapTraveltime="43.90" density="12.02" laneDensity="6.01" occupancy="3.00" waitingTime="0.00" timeLoss="195.17" speed="13.01" speedRelative="0.94" departed="14" arrived="27" entered="74" left="66" laneChangedFrom="0" laneChangedTo="0"/>
        <edge id="1047_op" sampledSeconds="4642.05" traveltime="42.35" overlapTraveltime="42.74" density="14.16" laneDensity="7.08" occupancy="3.54" waitingTime="0.00" timeLoss="318.28" speed="12.92" speedRelative="0.93" departed="6" arrived="6" entered="103" left="103" laneChangedFrom="0" laneChangedTo="0"/>
        <edge id="1047_sa" sampledSeconds="5527.91" traveltime="42.43" overlapTraveltime="42.81" density="16.86" laneDensity="8.43" occupancy="4.21" waitingTime="0.00" timeLoss="322.65" speed="12.90" speedRelative="0.93" departed="11" arrived="8" entered="114" left="119" laneChangedFrom="0" laneChangedTo="0"/>
        <edge id="1214_op" sampledSeconds="6071.27" traveltime="30.98" overlapTraveltime="31.38" density="25.88" laneDensity="12.94" occupancy="6.47" waitingTime="0.00" timeLoss="489.59" speed="12.64" speedRelative="0.91" departed="7" arrived="19" entered="188" left="174" laneChangedFrom="0" laneChangedTo="0"/>
        <edge id="1214_sa" sampledSeconds="7410.88" traveltime="31.63" overlapTraveltime="32.03" density="31.58" laneDensity="15.79" occupancy="7.89" waitingTime="0.00" timeLoss="687.98" speed="12.39" speedRelative="0.89" departed="8" arrived="37" entered="219" left="196" laneChangedFrom="0" laneChangedTo="0"/>
        <edge id="1215_op" sampledSeconds="5006.93" traveltime="24.02" overlapTraveltime="24.44" density="29.12" laneDensity="14.56" occupancy="7.28" waitingTime="0.00" timeLoss="674.33" speed="11.95" speedRelative="0.86" departed="58" arrived="5" entered="140" left="207" laneChangedFrom="0" laneChangedTo="0"/>
        <edge id="1215_sa" sampledSeconds="6713.78" traveltime="23.97" overlapTraveltime="24.39" density="39.02" laneDensity="19.51" occupancy="9.76" waitingTime="0.00" timeLoss="847.16" speed="11.98" speedRelative="0.86" departed="5" arrived="107" entered="268" left="170" laneChangedFrom="0" laneChangedTo="0"/>
        <edge id="1216_op" sampledSeconds="8362.26" traveltime="50.62" overlapTraveltime="51.04" density="23.00" laneDensity="11.50" occupancy="5.75" waitingTime="0.00" timeLoss="1147.86" speed="11.99" speedRelative="0.86" departed="148" arrived="42" entered="10" left="121" laneChangedFrom="0" laneChangedTo="0"/>
        <edge id="1216_sa" sampledSeconds="6626.12" traveltime="46.93" overlapTraveltime="47.32" density="18.22" laneDensity="9.11" occupancy="4.56" waitingTime="0.00" timeLoss="420.21" speed="12.93" speedRelative="0.93" departed="0" arrived="139" entered="136" left="4" laneChangedFrom="0" laneChangedTo="0"/>
        <edge id="1217_op" sampledSeconds="4065.55" traveltime="23.38" overlapTraveltime="23.77" density="22.45" laneDensity="11.22" occupancy="5.61" waitingTime="0.00" timeLoss="303.87" speed="12.93" speedRelative="0.93" departed="45" arrived="21" entered="122" left="151" laneChangedFrom="0" laneChangedTo="0"/>
        <edge id="1217_sa" sampledSeconds="5198.68" traveltime="24.08" overlapTraveltime="24.48" density="28.68" laneDensity="14.34" occupancy="7.17" waitingTime="0.00" timeLoss="423.57" speed="12.56" speedRelative="0.90" departed="35" arrived="78" entered="174" left="137" laneChangedFrom="0" laneChangedTo="0"/>
        <edge id="1220_op" sampledSeconds="4459.34" traveltime="42.51" overlapTraveltime="42.89" density="13.32" laneDensity="6.66" occupancy="3.33" waitingTime="0.00" timeLoss="274.83" speed="13.15" speedRelative="0.95" departed="0" arrived="16" entered="106" left="88" laneChangedFrom="0" laneChangedTo="0"/>
        <edge id="1220_sa" sampledSeconds="5150.74" traveltime="44.78" overlapTraveltime="45.18" density="15.27" laneDensity="7.63" occupancy="3.82" waitingTime="0.00" timeLoss="424.99" speed="12.58" speedRelative="0.91" departed="15" arrived="1" entered="93" left="117" laneChangedFrom="0" laneChangedTo="0"/>
        <edge id="1221_op" sampledSeconds="1595.16" traveltime="15.68" overlapTraveltime="16.07" density="12.99" laneDensity="6.49" occupancy="3.25" waitingTime="0.00" timeLoss="94.23" speed="13.07" speedRelative="0.94" departed="3" arrived="45" entered="98" left="56" laneChangedFrom="0" laneChangedTo="0"/>