<?xml version="1.0" encoding="UTF-8"?>

<!-- generated on 2023-10-31 19:52:03 by Eclipse SUMO GUI Version 1.18.0
<configuration xmlns:xsi="http://www.w3.org/2001/XMLSchema-instance" xsi:noNamespaceSchemaLocation="http://sumo.dlr.de/xsd/sumoConfiguration.xsd">

    <input>
        <net-file value="/Users/christtzm/tzm/PyWork/trans_llm/TrafficGPT/real-world-simulation-withTLS/xuancheng.net.xml"/>
        <route-files value="/Users/christtzm/tzm/PyWork/trans_llm/TrafficGPT/real-world-simulation-withTLS/xuancheng.rou.xml"/>
        <additional-files value="/Users/christtzm/tzm/PyWork/trans_llm/TrafficGPT/real-world-simulation-withTLS/add.add.xml,/Users/christtzm/tzm/PyWork/trans_llm/TrafficGPT/real-world-simulation-withTLS/newTLS.add.xml"/>
    </input>

    <processing>
        <collision.action value="none"/>
        <time-to-teleport value="300"/>
    </processing>

    <traci_server>
        <remote-port value="49505"/>
    </traci_server>

    <mesoscopic>
        <mesosim value="TRUE"/>
    </mesoscopic>

    <gui_only>
        <gui-settings-file value="/Users/christtzm/tzm/PyWork/trans_llm/TrafficGPT/real-world-simulation-withTLS/viewsettings.xml"/>
    </gui_only>

</configuration>
-->

<meandata xmlns:xsi="http://www.w3.org/2001/XMLSchema-instance" xsi:noNamespaceSchemaLocation="http://sumo.dlr.de/xsd/meandata_file.xsd">
</meandata>
