<?xml version="1.0" encoding="UTF-8"?>

<!-- generated on 2023-12-19 16:35:41 by Eclipse SUMO GUI Version 1.18.0
<configuration xmlns:xsi="http://www.w3.org/2001/XMLSchema-instance" xsi:noNamespaceSchemaLocation="http://sumo.dlr.de/xsd/sumoConfiguration.xsd">

    <input>
        <net-file value="./real-world-simulation-withTLS/gen_net/test4_1.net.xml"/>
        <route-files value="./real-world-simulation-withTLS/gen_net/test4_2.rou.xml"/>
        <additional-files value="./real-world-simulation-withTLS/gen_net/add.add.xml,./real-world-simulation-withTLS/gen_net/newTLS.add.xml"/>
    </input>

    <processing>
        <collision.action value="none"/>
        <time-to-teleport value="1000"/>
    </processing>

    <traci_server>
        <remote-port value="65517"/>
    </traci_server>

    <gui_only>
        <gui-settings-file value="./real-world-simulation-withTLS/gen_net/viewsettings.xml"/>
    </gui_only>

</configuration>
-->

<meandata xmlns:xsi="http://www.w3.org/2001/XMLSchema-instance" xsi:noNamespaceSchemaLocation="http://sumo.dlr.de/xsd/meandata_file.xsd">
    <interval begin="0.00" end="100.00" id="test_1">
        <edge id="-364638850" sampledSeconds="0.00" departed="0" arrived="0" entered="0" left="0" laneChangedFrom="0" laneChangedTo="0"/>
        <edge id="1154482313#0" sampledSeconds="0.00" departed="0" arrived="0" entered="0" left="0" laneChangedFrom="0" laneChangedTo="0"/>
        <edge id="1154482314#2" sampledSeconds="0.00" departed="0" arrived="0" entered="0" left="0" laneChangedFrom="0" laneChangedTo="0"/>
        <edge id="185495393" sampledSeconds="0.00" departed="0" arrived="0" entered="0" left="0" laneChangedFrom="0" laneChangedTo="0"/>
        <edge id="219627712" sampledSeconds="169.40" traveltime="12.21" overlapTraveltime="12.54" density="7.79" laneDensity="7.79" occupancy="3.81" waitingTime="0.00" timeLoss="36.18" speed="17.74" speedRelative="0.80" departed="0" arrived="0" entered="17" left="9" laneChangedFrom="0" laneChangedTo="0"/>
        <edge id="219627713.31.8" sampledSeconds="0.00" departed="0" arrived="0" entered="0" left="0" laneChangedFrom="0" laneChangedTo="0"/>
        <edge id="219628424" sampledSeconds="208.69" traveltime="6.70" overlapTraveltime="6.90" density="15.86" laneDensity="7.93" occupancy="3.80" waitingTime="0.00" timeLoss="62.17" speed="19.79" speedRelative="0.71" departed="0" arrived="0" entered="31" left="29" laneChangedFrom="0" laneChangedTo="0"/>
        <edge id="219628425#0" sampledSeconds="0.00" departed="0" arrived="0" entered="0" left="0" laneChangedFrom="0" laneChangedTo="0"/>
        <edge id="219628425#1" sampledSeconds="0.00" departed="0" arrived="0" entered="0" left="0" laneChangedFrom="0" laneChangedTo="0"/>
        <edge id="219628426#0" sampledSeconds="0.00" departed="0" arrived="0" entered="0" left="0" laneChangedFrom="0" laneChangedTo="0"/>
        <edge id="219628426#1" sampledSeconds="0.00" departed="0" arrived="0" entered="0" left="0" laneChangedFrom="0" laneChangedTo="0"/>
        <edge id="219628427" sampledSeconds="0.00" departed="0" arrived="0" entered="0" left="0" laneChangedFrom="0" laneChangedTo="0"/>
        <edge id="219628428" sampledSeconds="0.00" departed="0" arrived="0" entered="0" left="0" laneChangedFrom="0" laneChangedTo="0"/>
        <edge id="219628429#0" sampledSeconds="0.00" departed="0" arrived="0" entered="0" left="0" laneChangedFrom="0" laneChangedTo="0"/>
        <edge id="219628429#1" sampledSeconds="0.00" departed="0" arrived="0" entered="0" left="0" laneChangedFrom="0" laneChangedTo="0"/>
        <edge id="219628429#2" sampledSeconds="0.00" departed="0" arrived="0" entered="0" left="0" laneChangedFrom="0" laneChangedTo="0"/>
        <edge id="219628429#3" sampledSeconds="107.78" traveltime="3.78" overlapTraveltime="3.97" density="10.89" laneDensity="5.44" occupancy="2.59" waitingTime="0.00" timeLoss="9.15" speed="26.18" speedRelative="0.94" departed="0" arrived="0" entered="28" left="27" laneChangedFrom="0" laneChangedTo="0"/>
        <edge id="219628429#4" sampledSeconds="307.55" traveltime="12.65" overlapTraveltime="12.84" density="9.47" laneDensity="4.74" occupancy="2.33" waitingTime="0.00" timeLoss="30.66" speed="25.66" speedRelative="0.92" departed="0" arrived="0" entered="27" left="21" laneChangedFrom="0" laneChangedTo="0"/>
        <edge id="219628429#5" sampledSeconds="309.65" traveltime="16.86" overlapTraveltime="17.23" density="9.69" laneDensity="4.84" occupancy="2.38" waitingTime="0.00" timeLoss="104.08" speed="18.84" speedRelative="0.68" departed="0" arrived="0" entered="20" left="15" laneChangedFrom="0" laneChangedTo="0"/>
        <edge id="219628430" sampledSeconds="0.00" departed="0" arrived="0" entered="0" left="0" laneChangedFrom="0" laneChangedTo="0"/>
        <edge id="219628431" sampledSeconds="0.00" departed="0" arrived="0" entered="0" left="0" laneChangedFrom="0" laneChangedTo="0"/>
        <edge id="219628432" sampledSeconds="0.00" departed="0" arrived="0" entered="0" left="0" laneChangedFrom="0" laneChangedTo="0"/>
        <edge id="219628433" sampledSeconds="0.00" departed="0" arrived="0" entered="0" left="0" laneChangedFrom="0" laneChangedTo="0"/>
        <edge id="219628434" sampledSeconds="0.00" departed="0" arrived="0" entered="0" left="0" laneChangedFrom="0" laneChangedTo="0"/>
        <edge id="219822984#0" sampledSeconds="225.71" traveltime="9.95" overlapTraveltime="10.16" density="8.84" laneDensity="4.42" occupancy="2.17" waitingTime="0.00" timeLoss="18.91" speed="25.63" speedRelative="0.92" departed="0" arrived="0" entered="24" left="20" laneChangedFrom="0" laneChangedTo="0"/>
        <edge id="219822984#1" sampledSeconds="0.00" departed="0" arrived="0" entered="0" left="0" laneChangedFrom="0" laneChangedTo="0"/>
        <edge id="219822984#2" sampledSeconds="0.00" departed="0" arrived="0" entered="0" left="0" laneChangedFrom="0" laneChangedTo="0"/>
        <edge id="219822985#0" sampledSeconds="0.00" departed="0" arrived="0" entered="0" left="0" laneChangedFrom="0" laneChangedTo="0"/>
        <edge id="219822985#1" sampledSeconds="0.00" departed="0" arrived="0" entered="0" left="0" laneChangedFrom="0" laneChangedTo="0"/>
        <edge id="219822986#0" sampledSeconds="0.00" departed="0" arrived="0" entered="0" left="0" laneChangedFrom="0" laneChangedTo="0"/>
        <edge id="219822986#1" sampledSeconds="0.00" departed="0" arrived="0" entered="0" left="0" laneChangedFrom="0" laneChangedTo="0"/>
        <edge id="219822986#2" sampledSeconds="207.59" traveltime="8.23" overlapTraveltime="8.43" density="14.81" laneDensity="7.41" occupancy="3.54" waitingTime="0.00" timeLoss="79.86" speed="17.21" speedRelative="0.62" departed="0" arrived="0" entered="25" left="24" laneChangedFrom="25" laneChangedTo="25"/>
        <edge id="219822988" sampledSeconds="0.00" departed="0" arrived="0" entered="0" left="0" laneChangedFrom="0" laneChangedTo="0"/>
        <edge id="219822989" sampledSeconds="0.00" departed="0" arrived="0" entered="0" left="0" laneChangedFrom="0" laneChangedTo="0"/>
        <edge id="219822990#0" sampledSeconds="70.41" traveltime="3.38" overlapTraveltime="3.74" density="11.34" laneDensity="5.67" occupancy="2.62" waitingTime="0.00" timeLoss="21.38" speed="17.94" speedRelative="0.65" departed="0" arrived="0" entered="19" left="18" laneChangedFrom="0" laneChangedTo="0"/>
        <edge id="219822990#1" sampledSeconds="0.00" departed="0" arrived="0" entered="0" left="0" laneChangedFrom="0" laneChangedTo="0"/>
        <edge id="219822990#2" sampledSeconds="0.00" departed="0" arrived="0" entered="0" left="0" laneChangedFrom="0" laneChangedTo="0"/>
        <edge id="219822991" sampledSeconds="0.00" departed="0" arrived="0" entered="0" left="0" laneChangedFrom="0" laneChangedTo="0"/>
        <edge id="219823957" sampledSeconds="604.07" traveltime="21.60" overlapTraveltime="22.29" density="16.14" laneDensity="16.14" occupancy="7.95" waitingTime="0.00" timeLoss="230.75" speed="17.02" speedRelative="0.61" departed="29" arrived="0" entered="0" left="25" laneChangedFrom="0" laneChangedTo="0"/>
        <edge id="219860996" sampledSeconds="0.00" departed="0" arrived="0" entered="0" left="0" laneChangedFrom="0" laneChangedTo="0"/>
        <edge id="219860997#0" sampledSeconds="290.44" traveltime="20.93" overlapTraveltime="21.16" density="6.87" laneDensity="6.87" occupancy="3.39" waitingTime="0.00" timeLoss="29.89" speed="20.22" speedRelative="0.91" departed="0" arrived="0" entered="18" left="9" laneChangedFrom="0" laneChangedTo="0"/>
        <edge id="219860997#1" sampledSeconds="117.23" traveltime="14.18" overlapTraveltime="14.47" density="5.90" laneDensity="5.90" occupancy="2.91" waitingTime="0.00" timeLoss="46.42" speed="14.07" speedRelative="0.63" departed="0" arrived="0" entered="9" left="6" laneChangedFrom="0" laneChangedTo="0"/>
        <edge id="219860998" sampledSeconds="0.00" departed="0" arrived="0" entered="0" left="0" laneChangedFrom="0" laneChangedTo="0"/>
        <edge id="219860999" sampledSeconds="0.00" departed="0" arrived="0" entered="0" left="0" laneChangedFrom="0" laneChangedTo="0"/>
        <edge id="29496808#0" sampledSeconds="4355.75" traveltime="30.71" overlapTraveltime="30.98" density="77.71" laneDensity="25.90" occupancy="12.91" waitingTime="0.00" timeLoss="732.85" speed="18.25" speedRelative="0.83" departed="171" arrived="0" entered="0" left="115" laneChangedFrom="14" laneChangedTo="14"/>
        <edge id="29496808#1" sampledSeconds="3425.85" traveltime="44.60" overlapTraveltime="45.03" density="43.06" laneDensity="14.35" occupancy="7.12" waitingTime="0.00" timeLoss="605.10" speed="17.78" speedRelative="0.81" departed="0" arrived="0" entered="114" left="33" laneChangedFrom="6" laneChangedTo="6"/>
        <edge id="364638850" sampledSeconds="0.00" departed="0" arrived="0" entered="0" left="0" laneChangedFrom="0" laneChangedTo="0"/>
        <edge id="364638851" sampledSeconds="0.00" departed="0" arrived="0" entered="0" left="0" laneChangedFrom="0" laneChangedTo="0"/>
        <edge id="394700607" sampledSeconds="0.00" departed="0" arrived="0" entered="0" left="0" laneChangedFrom="0" laneChangedTo="0"/>
        <edge id="394700608" sampledSeconds="80.71" traveltime="4.10" overlapTraveltime="4.37" density="10.31" laneDensity="10.31" occupancy="4.85" waitingTime="0.00" timeLoss="13.38" speed="19.07" speedRelative="0.86" departed="0" arrived="0" entered="19" left="18" laneChangedFrom="0" laneChangedTo="0"/>
        <edge id="394700612" sampledSeconds="34.29" traveltime="2.18" overlapTraveltime="2.45" density="9.21" laneDensity="9.21" occupancy="4.05" waitingTime="0.00" timeLoss="8.16" speed="17.24" speedRelative="0.78" departed="0" arrived="0" entered="14" left="14" laneChangedFrom="0" laneChangedTo="0"/>
        <edge id="478181242" sampledSeconds="0.00" departed="0" arrived="0" entered="0" left="0" laneChangedFrom="0" laneChangedTo="0"/>
        <edge id="478181243" sampledSeconds="0.00" departed="0" arrived="0" entered="0" left="0" laneChangedFrom="0" laneChangedTo="0"/>
        <edge id="478190549" sampledSeconds="0.00" departed="0" arrived="0" entered="0" left="0" laneChangedFrom="0" laneChangedTo="0"/>
        <edge id="478966536" sampledSeconds="0.00" departed="0" arrived="0" entered="0" left="0" laneChangedFrom="0" laneChangedTo="0"/>
        <edge id="479199823" sampledSeconds="25.21" traveltime="1.15" overlapTraveltime="1.42" density="11.54" laneDensity="11.54" occupancy="4.71" waitingTime="0.00" timeLoss="4.28" speed="18.97" speedRelative="0.85" departed="0" arrived="0" entered="18" left="17" laneChangedFrom="0" laneChangedTo="0"/>
        <edge id="55083473#1.4.32" sampledSeconds="0.00" departed="0" arrived="0" entered="0" left="0" laneChangedFrom="0" laneChangedTo="0"/>
        <edge id="55083473#1.4.49" sampledSeconds="0.00" departed="0" arrived="0" entered="0" left="0" laneChangedFrom="0" laneChangedTo="0"/>
        <edge id="55083473#2" sampledSeconds="0.00" departed="0" arrived="0" entered="0" left="0" laneChangedFrom="0" laneChangedTo="0"/>
        <edge id="830650861#0" sampledSeconds="161.02" traveltime="4.73" overlapTraveltime="5.10" density="18.54" laneDensity="9.27" occupancy="4.36" waitingTime="0.00" timeLoss="47.95" speed="18.00" speedRelative="0.65" departed="0" arrived="0" entered="32" left="31" laneChangedFrom="0" laneChangedTo="0"/>
        <edge id="830650861#1" sampledSeconds="0.00" departed="0" arrived="0" entered="0" left="0" laneChangedFrom="0" laneChangedTo="0"/>
        <edge id="830650861#2" sampledSeconds="0.00" departed="0" arrived="0" entered="0" left="0" laneChangedFrom="0" laneChangedTo="0"/>
        <edge id="830650861#3" sampledSeconds="0.00" departed="0" arrived="0" entered="0" left="0" laneChangedFrom="0" laneChangedTo="0"/>
        <edge id="830650861#4" sampledSeconds="0.00" departed="0" arrived="0" entered="0" left="0" laneChangedFrom="0" laneChangedTo="0"/>
        <edge id="830650861#5" sampledSeconds="0.00" departed="0" arrived="0" entered="0" left="0" laneChangedFrom="0" laneChangedTo="0"/>
        <edge id="830650862" sampledSeconds="159.98" traveltime="5.07" overlapTraveltime="5.30" density="18.96" laneDensity="9.48" occupancy="4.63" waitingTime="0.00" timeLoss="64.04" speed="16.85" speedRelative="0.61" departed="32" arrived="0" entered="0" left="32" laneChangedFrom="15" laneChangedTo="15"/>
        <edge id="830653153" sampledSeconds="0.00" departed="0" arrived="0" entered="0" left="0" laneChangedFrom="0" laneChangedTo="0"/>
        <edge id="830653154#10" sampledSeconds="0.00" departed="0" arrived="0" entered="0" left="0" laneChangedFrom="0" laneChangedTo="0"/>
        <edge id="830653154#11" sampledSeconds="0.00" departed="0" arrived="0" entered="0" left="0" laneChangedFrom="0" laneChangedTo="0"/>
        <edge id="830653154#7" sampledSeconds="0.00" departed="0" arrived="0" entered="0" left="0" laneChangedFrom="0" laneChangedTo="0"/>
        <edge id="830653154#8" sampledSeconds="0.00" departed="0" arrived="0" entered="0" left="0" laneChangedFrom="0" laneChangedTo="0"/>
        <edge id="830653154#9" sampledSeconds="0.00" departed="0" arrived="0" entered="0" left="0" laneChangedFrom="0" laneChangedTo="0"/>
        <edge id="833484976" sampledSeconds="0.00" departed="0" arrived="0" entered="0" left="0" laneChangedFrom="0" laneChangedTo="0"/>
        <edge id="833484977" sampledSeconds="0.00" departed="0" arrived="0" entered="0" left="0" laneChangedFrom="0" laneChangedTo="0"/>
        <edge id="833484978" sampledSeconds="0.00" departed="0" arrived="0" entered="0" left="0" laneChangedFrom="0" laneChangedTo="0"/>
        <edge id="833484979" sampledSeconds="0.00" departed="0" arrived="0" entered="0" left="0" laneChangedFrom="0" laneChangedTo="0"/>
        <edge id="E0" sampledSeconds="0.00" departed="0" arrived="0" entered="0" left="0" laneChangedFrom="0" laneChangedTo="0"/>
        <edge id="ramp1" sampledSeconds="98.39" traveltime="25.20" overlapTraveltime="25.55" density="2.68" laneDensity="2.68" occupancy="1.32" waitingTime="0.00" timeLoss="12.04" speed="14.56" speedRelative="0.91" departed="0" arrived="0" entered="9" left="1" laneChangedFrom="0" laneChangedTo="0"/>
        <edge id="ramp1In" sampledSeconds="1.41" traveltime="1.02" overlapTraveltime="1.41" density="1.05" laneDensity="1.05" occupancy="0.39" waitingTime="0.00" timeLoss="0.14" speed="13.08" speedRelative="0.93" departed="0" arrived="0" entered="1" left="1" laneChangedFrom="0" laneChangedTo="0"/>
        <edge id="ramp1Merge" sampledSeconds="86.56" traveltime="6.38" overlapTraveltime="6.85" density="13.33" laneDensity="3.33" occupancy="1.54" waitingTime="0.00" timeLoss="9.69" speed="10.21" speedRelative="0.93" departed="0" arrived="0" entered="15" left="11" laneChangedFrom="4" laneChangedTo="4"/>
        <edge id="ramp1MergeFrom" sampledSeconds="307.40" traveltime="12.99" overlapTraveltime="13.53" density="26.57" laneDensity="8.86" occupancy="4.23" waitingTime="0.00" timeLoss="37.89" speed="8.92" speedRelative="1.27" departed="0" arrived="0" entered="33" left="15" laneChangedFrom="8" laneChangedTo="8"/>
        <edge id="ramp1MergeTo" sampledSeconds="92.68" traveltime="22.47" overlapTraveltime="22.74" density="2.17" laneDensity="0.72" occupancy="0.35" waitingTime="0.00" timeLoss="15.65" speed="19.01" speedRelative="0.86" departed="0" arrived="0" entered="11" left="0" laneChangedFrom="4" laneChangedTo="4"/>
    </interval>
    <interval begin="100.00" end="200.00" id="test_1">
        <edge id="-364638850" sampledSeconds="0.00" departed="0" arrived="0" entered="0" left="0" laneChangedFrom="0" laneChangedTo="0"/>
        <edge id="1154482313#0" sampledSeconds="0.00" departed="0" arrived="0" entered="0" left="0" laneChangedFrom="0" laneChangedTo="0"/>
        <edge id="1154482314#2" sampledSeconds="0.00" departed="0" arrived="0" entered="0" left="0" laneChangedFrom="0" laneChangedTo="0"/>
        <edge id="185495393" sampledSeconds="0.00" departed="0" arrived="0" entered="0" left="0" laneChangedFrom="0" laneChangedTo="0"/>
        <edge id="219627712" sampledSeconds="631.14" traveltime="13.17" overlapTraveltime="13.58" density="29.03" laneDensity="29.03" occupancy="14.16" waitingTime="0.00" timeLoss="155.20" speed="16.38" speedRelative="0.74" departed="0" arrived="0" entered="46" left="48" laneChangedFrom="0" laneChangedTo="0"/>
        <edge id="219627713.31.8" sampledSeconds="0.00" departed="0" arrived="0" entered="0" left="0" laneChangedFrom="0" laneChangedTo="0"/>
        <edge id="219628424" sampledSeconds="155.44" traveltime="6.74" overlapTraveltime="6.94" density="11.81" laneDensity="5.91" occupancy="2.83" waitingTime="0.00" timeLoss="43.75" speed="19.69" speedRelative="0.71" departed="0" arrived="0" entered="23" left="23" laneChangedFrom="0" laneChangedTo="0"/>
        <edge id="219628425#0" sampledSeconds="0.00" departed="0" arrived="0" entered="0" left="0" laneChangedFrom="0" laneChangedTo="0"/>
        <edge id="219628425#1" sampledSeconds="0.00" departed="0" arrived="0" entered="0" left="0" laneChangedFrom="0" laneChangedTo="0"/>
        <edge id="219628426#0" sampledSeconds="0.00" departed="0" arrived="0" entered="0" left="0" laneChangedFrom="0" laneChangedTo="0"/>
        <edge id="219628426#1" sampledSeconds="0.00" departed="0" arrived="0" entered="0" left="0" laneChangedFrom="0" laneChangedTo="0"/>
        <edge id="219628427" sampledSeconds="0.00" departed="0" arrived="0" entered="0" left="0" laneChangedFrom="0" laneChangedTo="0"/>
        <edge id="219628428" sampledSeconds="0.00" departed="0" arrived="0" entered="0" left="0" laneChangedFrom="0" laneChangedTo="0"/>
        <edge id="219628429#0" sampledSeconds="0.00" departed="0" arrived="0" entered="0" left="0" laneChangedFrom="0" laneChangedTo="0"/>
        <edge id="219628429#1" sampledSeconds="0.00" departed="0" arrived="0" entered="0" left="0" laneChangedFrom="0" laneChangedTo="0"/>
        <edge id="219628429#2" sampledSeconds="0.00" departed="0" arrived="0" entered="0" left="0" laneChangedFrom="0" laneChangedTo="0"/>
        <edge id="219628429#3" sampledSeconds="105.40" traveltime="4.03" overlapTraveltime="4.24" density="10.65" laneDensity="5.32" occupancy="2.54" waitingTime="0.00" timeLoss="9.72" speed="24.54" speedRelative="0.88" departed="0" arrived="0" entered="24" left="25" laneChangedFrom="0" laneChangedTo="0"/>
        <edge id="219628429#4" sampledSeconds="373.50" traveltime="13.37" overlapTraveltime="13.58" density="11.51" laneDensity="5.75" occupancy="2.83" waitingTime="0.00" timeLoss="41.14" speed="24.28" speedRelative="0.87" departed="0" arrived="0" entered="25" left="29" laneChangedFrom="0" laneChangedTo="0"/>
        <edge id="219628429#5" sampledSeconds="952.62" traveltime="33.93" overlapTraveltime="34.43" density="29.81" laneDensity="14.90" occupancy="7.38" waitingTime="2.00" timeLoss="625.11" speed="9.43" speedRelative="0.34" departed="0" arrived="0" entered="30" left="23" laneChangedFrom="0" laneChangedTo="0"/>
        <edge id="219628430" sampledSeconds="0.00" departed="0" arrived="0" entered="0" left="0" laneChangedFrom="0" laneChangedTo="0"/>
        <edge id="219628431" sampledSeconds="0.00" departed="0" arrived="0" entered="0" left="0" laneChangedFrom="0" laneChangedTo="0"/>
        <edge id="219628432" sampledSeconds="0.00" departed="0" arrived="0" entered="0" left="0" laneChangedFrom="0" laneChangedTo="0"/>
        <edge id="219628433" sampledSeconds="0.00" departed="0" arrived="0" entered="0" left="0" laneChangedFrom="0" laneChangedTo="0"/>
        <edge id="219628434" sampledSeconds="0.00" departed="0" arrived="0" entered="0" left="0" laneChangedFrom="0" laneChangedTo="0"/>
        <edge id="219822984#0" sampledSeconds="259.81" traveltime="10.10" overlapTraveltime="10.31" density="10.17" laneDensity="5.09" occupancy="2.49" waitingTime="0.00" timeLoss="17.12" speed="25.25" speedRelative="0.91" departed="0" arrived="0" entered="25" left="26" laneChangedFrom="0" laneChangedTo="0"/>
        <edge id="219822984#1" sampledSeconds="0.00" departed="0" arrived="0" entered="0" left="0" laneChangedFrom="0" laneChangedTo="0"/>
        <edge id="219822984#2" sampledSeconds="0.00" departed="0" arrived="0" entered="0" left="0" laneChangedFrom="0" laneChangedTo="0"/>
        <edge id="219822985#0" sampledSeconds="0.00" departed="0" arrived="0" entered="0" left="0" laneChangedFrom="0" laneChangedTo="0"/>
        <edge id="219822985#1" sampledSeconds="0.00" departed="0" arrived="0" entered="0" left="0" laneChangedFrom="0" laneChangedTo="0"/>
        <edge id="219822986#0" sampledSeconds="0.00" departed="0" arrived="0" entered="0" left="0" laneChangedFrom="0" laneChangedTo="0"/>
        <edge id="219822986#1" sampledSeconds="0.00" departed="0" arrived="0" entered="0" left="0" laneChangedFrom="0" laneChangedTo="0"/>
        <edge id="219822986#2" sampledSeconds="221.13" traveltime="8.26" overlapTraveltime="8.46" density="15.78" laneDensity="7.89" occupancy="3.77" waitingTime="0.00" timeLoss="80.66" speed="17.15" speedRelative="0.62" departed="0" arrived="0" entered="28" left="26" laneChangedFrom="28" laneChangedTo="28"/>
        <edge id="219822988" sampledSeconds="0.00" departed="0" arrived="0" entered="0" left="0" laneChangedFrom="0" laneChangedTo="0"/>
        <edge id="219822989" sampledSeconds="0.00" departed="0" arrived="0" entered="0" left="0" laneChangedFrom="0" laneChangedTo="0"/>
        <edge id="219822990#0" sampledSeconds="104.05" traveltime="3.47" overlapTraveltime="3.83" density="16.77" laneDensity="8.38" occupancy="3.87" waitingTime="0.00" timeLoss="28.91" speed="17.50" speedRelative="0.63" departed="0" arrived="0" entered="27" left="28" laneChangedFrom="0" laneChangedTo="0"/>
        <edge id="219822990#1" sampledSeconds="0.00" departed="0" arrived="0" entered="0" left="0" laneChangedFrom="0" laneChangedTo="0"/>
        <edge id="219822990#2" sampledSeconds="0.00" departed="0" arrived="0" entered="0" left="0" laneChangedFrom="0" laneChangedTo="0"/>
        <edge id="219822991" sampledSeconds="0.00" departed="0" arrived="0" entered="0" left="0" laneChangedFrom="0" laneChangedTo="0"/>
        <edge id="219823957" sampledSeconds="612.70" traveltime="20.46" overlapTraveltime="21.14" density="16.37" laneDensity="16.37" occupancy="8.06" waitingTime="0.00" timeLoss="204.68" speed="17.95" speedRelative="0.65" departed="31" arrived="0" entered="0" left="28" laneChangedFrom="0" laneChangedTo="0"/>
        <edge id="219860996" sampledSeconds="0.00" departed="0" arrived="0" entered="0" left="0" laneChangedFrom="0" laneChangedTo="0"/>
        <edge id="219860997#0" sampledSeconds="619.99" traveltime="23.45" overlapTraveltime="23.74" density="14.67" laneDensity="14.67" occupancy="7.23" waitingTime="0.00" timeLoss="107.26" speed="18.02" speedRelative="0.81" departed="0" arrived="0" entered="27" left="28" laneChangedFrom="0" laneChangedTo="0"/>
        <edge id="219860997#1" sampledSeconds="718.79" traveltime="28.50" overlapTraveltime="28.82" density="36.19" laneDensity="36.19" occupancy="17.91" waitingTime="1.00" timeLoss="485.46" speed="7.07" speedRelative="0.32" departed="0" arrived="0" entered="28" left="23" laneChangedFrom="0" laneChangedTo="0"/>
        <edge id="219860998" sampledSeconds="0.00" departed="0" arrived="0" entered="0" left="0" laneChangedFrom="0" laneChangedTo="0"/>
        <edge id="219860999" sampledSeconds="0.00" departed="0" arrived="0" entered="0" left="0" laneChangedFrom="0" laneChangedTo="0"/>
        <edge id="29496808#0" sampledSeconds="5560.46" traveltime="33.18" overlapTraveltime="33.46" density="99.20" laneDensity="33.07" occupancy="16.46" waitingTime="0.00" timeLoss="1291.84" speed="16.90" speedRelative="0.77" departed="168" arrived="0" entered="0" left="166" laneChangedFrom="19" laneChangedTo="19"/>
        <edge id="29496808#1" sampledSeconds="10110.67" traveltime="66.16" overlapTraveltime="66.93" density="127.07" laneDensity="42.36" occupancy="21.02" waitingTime="0.00" timeLoss="4565.48" speed="11.96" speedRelative="0.54" departed="0" arrived="0" entered="164" left="123" laneChangedFrom="13" laneChangedTo="13"/>
        <edge id="364638850" sampledSeconds="0.00" departed="0" arrived="0" entered="0" left="0" laneChangedFrom="0" laneChangedTo="0"/>
        <edge id="364638851" sampledSeconds="0.00" departed="0" arrived="0" entered="0" left="0" laneChangedFrom="0" laneChangedTo="0"/>
        <edge id="394700607" sampledSeconds="0.00" departed="0" arrived="0" entered="0" left="0" laneChangedFrom="0" laneChangedTo="0"/>
        <edge id="394700608" sampledSeconds="191.26" traveltime="3.92" overlapTraveltime="4.17" density="24.44" laneDensity="24.44" occupancy="11.48" waitingTime="0.00" timeLoss="17.20" speed="19.96" speedRelative="0.90" departed="0" arrived="0" entered="46" left="45" laneChangedFrom="0" laneChangedTo="0"/>
        <edge id="394700612" sampledSeconds="61.50" traveltime="2.39" overlapTraveltime="2.67" density="16.52" laneDensity="16.52" occupancy="7.26" waitingTime="0.00" timeLoss="17.45" speed="15.79" speedRelative="0.71" departed="0" arrived="0" entered="23" left="23" laneChangedFrom="0" laneChangedTo="0"/>
        <edge id="478181242" sampledSeconds="0.00" departed="0" arrived="0" entered="0" left="0" laneChangedFrom="0" laneChangedTo="0"/>
        <edge id="478181243" sampledSeconds="0.00" departed="0" arrived="0" entered="0" left="0" laneChangedFrom="0" laneChangedTo="0"/>
        <edge id="478190549" sampledSeconds="0.00" departed="0" arrived="0" entered="0" left="0" laneChangedFrom="0" laneChangedTo="0"/>
        <edge id="478966536" sampledSeconds="0.00" departed="0" arrived="0" entered="0" left="0" laneChangedFrom="0" laneChangedTo="0"/>
        <edge id="479199823" sampledSeconds="60.91" traveltime="1.10" overlapTraveltime="1.35" density="27.88" laneDensity="27.88" occupancy="11.32" waitingTime="0.00" timeLoss="5.86" speed="19.92" speedRelative="0.90" departed="0" arrived="0" entered="45" left="46" laneChangedFrom="0" laneChangedTo="0"/>
        <edge id="55083473#1.4.32" sampledSeconds="0.00" departed="0" arrived="0" entered="0" left="0" laneChangedFrom="0" laneChangedTo="0"/>
        <edge id="55083473#1.4.49" sampledSeconds="0.00" departed="0" arrived="0" entered="0" left="0" laneChangedFrom="0" laneChangedTo="0"/>
        <edge id="55083473#2" sampledSeconds="0.00" departed="0" arrived="0" entered="0" left="0" laneChangedFrom="0" laneChangedTo="0"/>
        <edge id="830650861#0" sampledSeconds="114.48" traveltime="4.50" overlapTraveltime="4.88" density="13.18" laneDensity="6.59" occupancy="3.09" waitingTime="0.00" timeLoss="28.85" speed="18.81" speedRelative="0.68" departed="0" arrived="0" entered="23" left="24" laneChangedFrom="0" laneChangedTo="0"/>
        <edge id="830650861#1" sampledSeconds="0.00" departed="0" arrived="0" entered="0" left="0" laneChangedFrom="0" laneChangedTo="0"/>
        <edge id="830650861#2" sampledSeconds="0.00" departed="0" arrived="0" entered="0" left="0" laneChangedFrom="0" laneChangedTo="0"/>
        <edge id="830650861#3" sampledSeconds="0.00" departed="0" arrived="0" entered="0" left="0" laneChangedFrom="0" laneChangedTo="0"/>
        <edge id="830650861#4" sampledSeconds="0.00" departed="0" arrived="0" entered="0" left="0" laneChangedFrom="0" laneChangedTo="0"/>
        <edge id="830650861#5" sampledSeconds="0.00" departed="0" arrived="0" entered="0" left="0" laneChangedFrom="0" laneChangedTo="0"/>
        <edge id="830650862" sampledSeconds="117.55" traveltime="5.04" overlapTraveltime="5.28" density="13.93" laneDensity="6.97" occupancy="3.40" waitingTime="0.00" timeLoss="45.53" speed="16.93" speedRelative="0.61" departed="24" arrived="0" entered="0" left="23" laneChangedFrom="12" laneChangedTo="12"/>
        <edge id="830653153" sampledSeconds="0.00" departed="0" arrived="0" entered="0" left="0" laneChangedFrom="0" laneChangedTo="0"/>
        <edge id="830653154#10" sampledSeconds="0.00" departed="0" arrived="0" entered="0" left="0" laneChangedFrom="0" laneChangedTo="0"/>
        <edge id="830653154#11" sampledSeconds="0.00" departed="0" arrived="0" entered="0" left="0" laneChangedFrom="0" laneChangedTo="0"/>
        <edge id="830653154#7" sampledSeconds="0.00" departed="0" arrived="0" entered="0" left="0" laneChangedFrom="0" laneChangedTo="0"/>
        <edge id="830653154#8" sampledSeconds="0.00" departed="0" arrived="0" entered="0" left="0" laneChangedFrom="0" laneChangedTo="0"/>
        <edge id="830653154#9" sampledSeconds="0.00" departed="0" arrived="0" entered="0" left="0" laneChangedFrom="0" laneChangedTo="0"/>
        <edge id="833484976" sampledSeconds="0.00" departed="0" arrived="0" entered="0" left="0" laneChangedFrom="0" laneChangedTo="0"/>
        <edge id="833484977" sampledSeconds="0.00" departed="0" arrived="0" entered="0" left="0" laneChangedFrom="0" laneChangedTo="0"/>
        <edge id="833484978" sampledSeconds="0.00" departed="0" arrived="0" entered="0" left="0" laneChangedFrom="0" laneChangedTo="0"/>