<?xml version="1.0" encoding="UTF-8"?>

<!-- generated on 2023-11-02 10:50:36 by Eclipse SUMO GUI Version 1.18.0
<configuration xmlns:xsi="http://www.w3.org/2001/XMLSchema-instance" xsi:noNamespaceSchemaLocation="http://sumo.dlr.de/xsd/sumoConfiguration.xsd">

    <input>
        <net-file value="/Users/christtzm/tzm/PyWork/trans_llm/TrafficGPT/real-world-simulation-withTLS/gen_net/test4_1.net.xml"/>
        <route-files value="/Users/christtzm/tzm/PyWork/trans_llm/TrafficGPT/real-world-simulation-withTLS/gen_net/test4_2.rou.xml"/>
        <additional-files value="/Users/christtzm/tzm/PyWork/trans_llm/TrafficGPT/real-world-simulation-withTLS/gen_net/add.add.xml"/>
    </input>

    <processing>
        <collision.action value="none"/>
        <time-to-teleport value="1000"/>
    </processing>

    <traci_server>
        <remote-port value="64277"/>
    </traci_server>

    <mesoscopic>
        <mesosim value="TRUE"/>
    </mesoscopic>

    <gui_only>
        <gui-settings-file value="/Users/christtzm/tzm/PyWork/trans_llm/TrafficGPT/real-world-simulation-withTLS/gen_net/viewsettings.xml"/>
    </gui_only>

</configuration>
-->

<meandata xmlns:xsi="http://www.w3.org/2001/XMLSchema-instance" xsi:noNamespaceSchemaLocation="http://sumo.dlr.de/xsd/meandata_file.xsd">
    <interval begin="0.00" end="100.00" id="test_1">
        <edge id="-364638850" sampledSeconds="0.00" departed="0" arrived="0" entered="0" left="0" laneChangedFrom="0" laneChangedTo="0"/>
        <edge id="1154482313#0" sampledSeconds="0.03" traveltime="0.01" overlapTraveltime="0.19" density="1.45" laneDensity="1.45" occupancy="0.73" waitingTime="0.00" timeLoss="0.00" speed="27.59" speedRelative="0.99" departed="0" arrived="0" entered="4" left="4" laneChangedFrom="0" laneChangedTo="0"/>
        <edge id="1154482314#2" sampledSeconds="0.37" traveltime="0.18" overlapTraveltime="4.80" density="18.45" laneDensity="6.15" occupancy="3.08" waitingTime="0.00" timeLoss="0.35" speed="1.08" speedRelative="0.04" departed="0" arrived="0" entered="2" left="2" laneChangedFrom="0" laneChangedTo="0"/>
        <edge id="185495393" sampledSeconds="35.40" traveltime="14.96" overlapTraveltime="15.16" density="0.95" laneDensity="0.95" occupancy="0.48" waitingTime="0.00" timeLoss="0.00" speed="24.86" speedRelative="0.89" departed="0" arrived="1" entered="3" left="0" laneChangedFrom="0" laneChangedTo="0"/>
        <edge id="219627712" sampledSeconds="11.14" traveltime="9.31" overlapTraveltime="9.52" density="0.51" laneDensity="0.51" occupancy="0.26" waitingTime="0.00" timeLoss="0.00" speed="23.36" speedRelative="1.05" departed="0" arrived="0" entered="2" left="0" laneChangedFrom="0" laneChangedTo="0"/>
        <edge id="219627713.31.8" sampledSeconds="189.12" traveltime="36.45" overlapTraveltime="36.69" density="2.48" laneDensity="2.48" occupancy="1.24" waitingTime="0.00" timeLoss="8.48" speed="20.88" speedRelative="0.94" departed="0" arrived="0" entered="9" left="4" laneChangedFrom="0" laneChangedTo="0"/>
        <edge id="219628424" sampledSeconds="49.44" traveltime="4.94" overlapTraveltime="5.13" density="3.76" laneDensity="1.88" occupancy="0.94" waitingTime="0.00" timeLoss="0.80" speed="26.62" speedRelative="0.96" departed="0" arrived="0" entered="10" left="10" laneChangedFrom="0" laneChangedTo="0"/>
        <edge id="219628425#0" sampledSeconds="0.00" departed="0" arrived="0" entered="0" left="0" laneChangedFrom="0" laneChangedTo="0"/>
        <edge id="219628425#1" sampledSeconds="7.97" traveltime="7.97" overlapTraveltime="8.20" density="0.45" laneDensity="0.45" occupancy="0.23" waitingTime="0.00" timeLoss="0.00" speed="22.10" speedRelative="0.99" departed="0" arrived="0" entered="1" left="1" laneChangedFrom="0" laneChangedTo="0"/>
        <edge id="219628426#0" sampledSeconds="3.14" traveltime="1.05" overlapTraveltime="1.28" density="1.40" laneDensity="1.40" occupancy="0.70" waitingTime="0.00" timeLoss="0.16" speed="21.41" speedRelative="0.96" departed="0" arrived="0" entered="3" left="3" laneChangedFrom="0" laneChangedTo="0"/>
        <edge id="219628426#1" sampledSeconds="45.45" traveltime="15.16" overlapTraveltime="15.40" density="1.41" laneDensity="1.41" occupancy="0.70" waitingTime="0.00" timeLoss="2.50" speed="21.29" speedRelative="0.96" departed="0" arrived="0" entered="3" left="2" laneChangedFrom="0" laneChangedTo="0"/>
        <edge id="219628427" sampledSeconds="44.97" traveltime="11.24" overlapTraveltime="11.48" density="1.91" laneDensity="1.91" occupancy="0.96" waitingTime="0.00" timeLoss="1.63" speed="20.93" speedRelative="0.94" departed="0" arrived="0" entered="4" left="4" laneChangedFrom="0" laneChangedTo="0"/>
        <edge id="219628428" sampledSeconds="10.73" traveltime="3.58" overlapTraveltime="3.81" density="1.40" laneDensity="1.40" occupancy="0.70" waitingTime="0.00" timeLoss="0.53" speed="21.42" speedRelative="0.96" departed="0" arrived="0" entered="3" left="3" laneChangedFrom="0" laneChangedTo="0"/>
        <edge id="219628429#0" sampledSeconds="1.33" traveltime="0.67" overlapTraveltime="0.84" density="0.68" laneDensity="0.34" occupancy="0.17" waitingTime="0.00" timeLoss="0.00" speed="29.40" speedRelative="1.06" departed="0" arrived="0" entered="2" left="2" laneChangedFrom="0" laneChangedTo="0"/>
        <edge id="219628429#1" sampledSeconds="0.00" departed="0" arrived="0" entered="0" left="0" laneChangedFrom="0" laneChangedTo="0"/>
        <edge id="219628429#2" sampledSeconds="0.00" departed="0" arrived="0" entered="0" left="0" laneChangedFrom="0" laneChangedTo="0"/>
        <edge id="219628429#3" sampledSeconds="37.54" traveltime="3.75" overlapTraveltime="3.94" density="3.79" laneDensity="1.90" occupancy="0.95" waitingTime="0.00" timeLoss="0.95" speed="26.37" speedRelative="0.95" departed="0" arrived="0" entered="10" left="10" laneChangedFrom="0" laneChangedTo="0"/>
        <edge id="219628429#4" sampledSeconds="134.47" traveltime="12.35" overlapTraveltime="12.54" density="4.14" laneDensity="2.07" occupancy="1.04" waitingTime="0.00" timeLoss="3.17" speed="26.29" speedRelative="0.95" departed="0" arrived="0" entered="12" left="9" laneChangedFrom="0" laneChangedTo="0"/>
        <edge id="219628429#5" sampledSeconds="66.01" traveltime="12.32" overlapTraveltime="12.51" density="2.07" laneDensity="1.03" occupancy="0.52" waitingTime="0.00" timeLoss="2.02" speed="25.95" speedRelative="0.93" departed="0" arrived="0" entered="6" left="5" laneChangedFrom="0" laneChangedTo="0"/>
        <edge id="219628430" sampledSeconds="28.45" traveltime="15.09" overlapTraveltime="15.33" density="0.89" laneDensity="0.89" occupancy="0.44" waitingTime="0.00" timeLoss="0.00" speed="21.20" speedRelative="0.95" departed="0" arrived="0" entered="3" left="1" laneChangedFrom="0" laneChangedTo="0"/>
        <edge id="219628431" sampledSeconds="0.00" departed="0" arrived="0" entered="0" left="0" laneChangedFrom="0" laneChangedTo="0"/>
        <edge id="219628432" sampledSeconds="30.13" traveltime="12.27" overlapTraveltime="12.49" density="1.06" laneDensity="1.06" occupancy="0.53" waitingTime="0.00" timeLoss="0.00" speed="23.09" speedRelative="1.04" departed="0" arrived="0" entered="3" left="2" laneChangedFrom="0" laneChangedTo="0"/>
        <edge id="219628433" sampledSeconds="23.25" traveltime="32.51" overlapTraveltime="32.73" density="0.31" laneDensity="0.31" occupancy="0.16" waitingTime="0.00" timeLoss="0.00" speed="23.06" speedRelative="1.04" departed="0" arrived="0" entered="2" left="0" laneChangedFrom="0" laneChangedTo="0"/>
        <edge id="219628434" sampledSeconds="33.07" traveltime="10.55" overlapTraveltime="10.78" density="1.47" laneDensity="1.47" occupancy="0.73" waitingTime="0.00" timeLoss="1.56" speed="21.33" speedRelative="0.96" departed="0" arrived="0" entered="4" left="3" laneChangedFrom="0" laneChangedTo="0"/>
        <edge id="219822984#0" sampledSeconds="90.62" traveltime="8.72" overlapTraveltime="8.89" density="3.55" laneDensity="1.77" occupancy="0.89" waitingTime="0.00" timeLoss="0.15" speed="29.28" speedRelative="1.05" departed="0" arrived="0" entered="11" left="9" laneChangedFrom="0" laneChangedTo="0"/>
        <edge id="219822984#1" sampledSeconds="7.83" traveltime="2.61" overlapTraveltime="2.78" density="1.01" laneDensity="0.51" occupancy="0.25" waitingTime="0.00" timeLoss="0.00" speed="29.61" speedRelative="1.07" departed="0" arrived="0" entered="3" left="3" laneChangedFrom="0" laneChangedTo="0"/>
        <edge id="219822984#2" sampledSeconds="12.80" traveltime="4.27" overlapTraveltime="4.44" density="1.01" laneDensity="0.51" occupancy="0.25" waitingTime="0.00" timeLoss="0.00" speed="29.61" speedRelative="1.07" departed="0" arrived="0" entered="3" left="3" laneChangedFrom="0" laneChangedTo="0"/>
        <edge id="219822985#0" sampledSeconds="0.00" departed="0" arrived="0" entered="0" left="0" laneChangedFrom="0" laneChangedTo="0"/>
        <edge id="219822985#1" sampledSeconds="0.00" departed="0" arrived="0" entered="0" left="0" laneChangedFrom="0" laneChangedTo="0"/>
        <edge id="219822986#0" sampledSeconds="21.60" traveltime="7.20" overlapTraveltime="7.40" density="1.19" laneDensity="0.60" occupancy="0.30" waitingTime="0.00" timeLoss="0.00" speed="25.15" speedRelative="0.91" departed="0" arrived="0" entered="3" left="3" laneChangedFrom="0" laneChangedTo="0"/>
        <edge id="219822986#1" sampledSeconds="0.00" departed="0" arrived="0" entered="0" left="0" laneChangedFrom="0" laneChangedTo="0"/>
        <edge id="219822986#2" sampledSeconds="43.94" traveltime="4.77" overlapTraveltime="4.94" density="3.13" laneDensity="1.57" occupancy="0.78" waitingTime="0.00" timeLoss="0.03" speed="29.36" speedRelative="1.06" departed="0" arrived="0" entered="10" left="9" laneChangedFrom="0" laneChangedTo="0"/>
        <edge id="219822987" sampledSeconds="0.00" departed="0" arrived="0" entered="0" left="0" laneChangedFrom="0" laneChangedTo="0"/>
        <edge id="219822988" sampledSeconds="4.27" traveltime="2.14" overlapTraveltime="2.35" density="0.88" laneDensity="0.88" occupancy="0.44" waitingTime="0.00" timeLoss="0.00" speed="22.85" speedRelative="1.03" departed="0" arrived="0" entered="2" left="2" laneChangedFrom="0" laneChangedTo="0"/>
        <edge id="219822989" sampledSeconds="106.04" traveltime="13.52" overlapTraveltime="13.73" density="3.37" laneDensity="3.37" occupancy="1.68" waitingTime="0.00" timeLoss="0.00" speed="23.30" speedRelative="1.05" departed="0" arrived="0" entered="8" left="7" laneChangedFrom="0" laneChangedTo="0"/>
        <edge id="219822990#0" sampledSeconds="11.67" traveltime="2.12" overlapTraveltime="2.30" density="1.88" laneDensity="0.94" occupancy="0.47" waitingTime="0.00" timeLoss="0.00" speed="29.21" speedRelative="1.05" departed="0" arrived="0" entered="6" left="5" laneChangedFrom="0" laneChangedTo="0"/>
        <edge id="219822990#1" sampledSeconds="0.02" traveltime="0.01" overlapTraveltime="0.18" density="1.05" laneDensity="0.53" occupancy="0.26" waitingTime="0.00" timeLoss="0.00" speed="28.57" speedRelative="1.03" departed="0" arrived="0" entered="3" left="3" laneChangedFrom="0" laneChangedTo="0"/>
        <edge id="219822990#2" sampledSeconds="25.28" traveltime="10.17" overlapTraveltime="10.34" density="0.85" laneDensity="0.42" occupancy="0.21" waitingTime="0.00" timeLoss="0.00" speed="29.26" speedRelative="1.05" departed="0" arrived="0" entered="3" left="2" laneChangedFrom="0" laneChangedTo="0"/>
        <edge id="219822991" sampledSeconds="92.21" traveltime="16.44" overlapTraveltime="16.65" density="2.45" laneDensity="1.22" occupancy="0.61" waitingTime="0.00" timeLoss="0.01" speed="22.92" speedRelative="1.03" departed="0" arrived="0" entered="7" left="3" laneChangedFrom="0" laneChangedTo="0"/>
        <edge id="219823957" sampledSeconds="148.54" traveltime="13.16" overlapTraveltime="13.33" density="3.97" laneDensity="3.97" occupancy="1.98" waitingTime="0.00" timeLoss="3.80" speed="28.45" speedRelative="1.02" departed="12" arrived="0" entered="0" left="10" laneChangedFrom="0" laneChangedTo="0"/>
        <edge id="219860996" sampledSeconds="14.03" traveltime="7.01" overlapTraveltime="7.23" density="0.88" laneDensity="0.44" occupancy="0.22" waitingTime="0.00" timeLoss="0.00" speed="22.85" speedRelative="1.03" departed="0" arrived="0" entered="2" left="2" laneChangedFrom="0" laneChangedTo="0"/>
        <edge id="219860997#0" sampledSeconds="36.91" traveltime="18.46" overlapTraveltime="18.67" density="0.87" laneDensity="0.87" occupancy="0.44" waitingTime="0.00" timeLoss="0.00" speed="22.91" speedRelative="1.03" departed="0" arrived="0" entered="2" left="2" laneChangedFrom="0" laneChangedTo="0"/>
        <edge id="219860997#1" sampledSeconds="13.65" traveltime="8.66" overlapTraveltime="8.87" density="0.69" laneDensity="0.69" occupancy="0.34" waitingTime="0.00" timeLoss="0.00" speed="22.94" speedRelative="1.03" departed="0" arrived="0" entered="2" left="0" laneChangedFrom="0" laneChangedTo="0"/>
        <edge id="219860998" sampledSeconds="0.00" departed="0" arrived="0" entered="0" left="0" laneChangedFrom="0" laneChangedTo="0"/>
        <edge id="219860999" sampledSeconds="15.89" traveltime="7.45" overlapTraveltime="7.67" density="0.94" laneDensity="0.47" occupancy="0.23" waitingTime="0.00" timeLoss="0.00" speed="22.77" speedRelative="1.02" departed="0" arrived="0" entered="3" left="2" laneChangedFrom="0" laneChangedTo="0"/>
        <edge id="29496808#0" sampledSeconds="861.91" traveltime="14.15" overlapTraveltime="14.28" density="15.92" laneDensity="5.31" occupancy="2.65" waitingTime="0.00" timeLoss="39.03" speed="38.27" speedRelative="0.97" departed="66" arrived="0" entered="0" left="58" laneChangedFrom="0" laneChangedTo="0"/>
        <edge id="29496808#1" sampledSeconds="1013.94" traveltime="26.38" overlapTraveltime="26.52" density="10.37" laneDensity="3.46" occupancy="1.73" waitingTime="0.00" timeLoss="61.44" speed="37.05" speedRelative="0.94" departed="0" arrived="0" entered="50" left="29" laneChangedFrom="0" laneChangedTo="0"/>
        <edge id="29496808#2" sampledSeconds="287.71" traveltime="10.38" overlapTraveltime="10.53" density="7.81" laneDensity="2.60" occupancy="1.30" waitingTime="0.00" timeLoss="29.60" speed="35.49" speedRelative="0.90" departed="0" arrived="0" entered="29" left="25" laneChangedFrom="0" laneChangedTo="0"/>
        <edge id="29496808#2.341" sampledSeconds="29.13" traveltime="1.23" overlapTraveltime="1.37" density="6.78" laneDensity="2.26" occupancy="1.13" waitingTime="0.00" timeLoss="3.37" speed="34.95" speedRelative="0.89" departed="0" arrived="22" entered="25" left="0" laneChangedFrom="0" laneChangedTo="0"/>
        <edge id="364638850" sampledSeconds="0.00" departed="0" arrived="0" entered="0" left="0" laneChangedFrom="0" laneChangedTo="0"/>
        <edge id="364638851" sampledSeconds="4.16" traveltime="2.08" overlapTraveltime="2.29" density="0.85" laneDensity="0.85" occupancy="0.43" waitingTime="0.00" timeLoss="0.00" speed="23.51" speedRelative="1.06" departed="0" arrived="0" entered="2" left="2" laneChangedFrom="0" laneChangedTo="0"/>
        <edge id="394700607" sampledSeconds="30.13" traveltime="15.07" overlapTraveltime="15.28" density="0.88" laneDensity="0.88" occupancy="0.44" waitingTime="0.00" timeLoss="0.00" speed="22.85" speedRelative="1.03" departed="0" arrived="0" entered="2" left="2" laneChangedFrom="0" laneChangedTo="0"/>
        <edge id="394700608" sampledSeconds="6.77" traveltime="3.38" overlapTraveltime="3.60" density="0.86" laneDensity="0.86" occupancy="0.43" waitingTime="0.00" timeLoss="0.00" speed="23.12" speedRelative="1.04" departed="0" arrived="0" entered="2" left="2" laneChangedFrom="0" laneChangedTo="0"/>
        <edge id="394700612" sampledSeconds="3.22" traveltime="1.61" overlapTraveltime="1.83" density="0.86" laneDensity="0.86" occupancy="0.43" waitingTime="0.00" timeLoss="0.00" speed="23.13" speedRelative="1.04" departed="0" arrived="0" entered="2" left="2" laneChangedFrom="0" laneChangedTo="0"/>
        <edge id="478181242" sampledSeconds="3.03" traveltime="1.01" overlapTraveltime="1.23" density="1.30" laneDensity="1.30" occupancy="0.65" waitingTime="0.00" timeLoss="0.00" speed="23.03" speedRelative="1.04" departed="0" arrived="0" entered="3" left="3" laneChangedFrom="0" laneChangedTo="0"/>
        <edge id="478181243" sampledSeconds="8.72" traveltime="2.91" overlapTraveltime="3.12" density="1.30" laneDensity="1.30" occupancy="0.65" waitingTime="0.00" timeLoss="0.00" speed="23.02" speedRelative="1.04" departed="0" arrived="0" entered="3" left="3" laneChangedFrom="0" laneChangedTo="0"/>
        <edge id="478190549" sampledSeconds="2.82" traveltime="0.94" overlapTraveltime="1.17" density="1.40" laneDensity="1.40" occupancy="0.70" waitingTime="0.00" timeLoss="0.14" speed="21.41" speedRelative="0.96" departed="0" arrived="0" entered="3" left="3" laneChangedFrom="0" laneChangedTo="0"/>
        <edge id="478966536" sampledSeconds="1.78" traveltime="0.89" overlapTraveltime="1.11" density="0.88" laneDensity="0.44" occupancy="0.22" waitingTime="0.00" timeLoss="0.00" speed="22.85" speedRelative="1.03" departed="0" arrived="0" entered="2" left="2" laneChangedFrom="0" laneChangedTo="0"/>
        <edge id="479199823" sampledSeconds="1.89" traveltime="0.95" overlapTraveltime="1.16" density="0.86" laneDensity="0.86" occupancy="0.43" waitingTime="0.00" timeLoss="0.00" speed="23.12" speedRelative="1.04" departed="0" arrived="0" entered="2" left="2" laneChangedFrom="0" laneChangedTo="0"/>
        <edge id="55083473#1.4.32" sampledSeconds="80.23" traveltime="1.39" overlapTraveltime="1.54" density="17.84" laneDensity="5.95" occupancy="2.97" waitingTime="0.00" timeLoss="2.46" speed="32.40" speedRelative="0.97" departed="58" arrived="0" entered="0" left="57" laneChangedFrom="0" laneChangedTo="0"/>
        <edge id="55083473#1.4.49" sampledSeconds="1905.49" traveltime="55.91" overlapTraveltime="56.06" density="10.62" laneDensity="3.54" occupancy="1.77" waitingTime="0.00" timeLoss="77.33" speed="32.08" speedRelative="0.96" departed="0" arrived="0" entered="48" left="20" laneChangedFrom="0" laneChangedTo="0"/>
        <edge id="55083473#2" sampledSeconds="62.28" traveltime="3.22" overlapTraveltime="3.38" density="6.29" laneDensity="2.10" occupancy="1.05" waitingTime="0.00" timeLoss="4.70" speed="30.78" speedRelative="0.92" departed="0" arrived="19" entered="20" left="0" laneChangedFrom="0" laneChangedTo="0"/>
        <edge id="830650861#0" sampledSeconds="82.55" traveltime="3.30" overlapTraveltime="3.49" density="9.50" laneDensity="4.75" occupancy="2.38" waitingTime="0.00" timeLoss="1.44" speed="26.31" speedRelative="0.95" departed="0" arrived="0" entered="25" left="25" laneChangedFrom="0" laneChangedTo="0"/>
        <edge id="830650861#1" sampledSeconds="48.86" traveltime="3.36" overlapTraveltime="3.55" density="5.52" laneDensity="2.76" occupancy="1.38" waitingTime="0.00" timeLoss="0.59" speed="26.34" speedRelative="0.95" departed="0" arrived="0" entered="15" left="14" laneChangedFrom="0" laneChangedTo="0"/>
        <edge id="830650861#2" sampledSeconds="296.04" traveltime="23.77" overlapTraveltime="23.97" density="4.82" laneDensity="2.41" occupancy="1.20" waitingTime="0.00" timeLoss="7.43" speed="25.85" speedRelative="0.93" departed="0" arrived="0" entered="14" left="11" laneChangedFrom="0" laneChangedTo="0"/>
        <edge id="830650861#3" sampledSeconds="86.92" traveltime="8.28" overlapTraveltime="8.47" density="4.02" laneDensity="2.01" occupancy="1.00" waitingTime="0.00" timeLoss="0.57" speed="26.14" speedRelative="0.94" departed="0" arrived="0" entered="11" left="9" laneChangedFrom="0" laneChangedTo="0"/>
        <edge id="830650861#4" sampledSeconds="65.65" traveltime="5.83" overlapTraveltime="6.01" density="4.25" laneDensity="2.12" occupancy="1.06" waitingTime="0.00" timeLoss="0.98" speed="26.52" speedRelative="0.95" departed="0" arrived="0" entered="12" left="11" laneChangedFrom="0" laneChangedTo="0"/>
        <edge id="830650861#5" sampledSeconds="67.47" traveltime="7.66" overlapTraveltime="7.86" density="3.50" laneDensity="1.75" occupancy="0.88" waitingTime="0.00" timeLoss="2.55" speed="25.14" speedRelative="0.90" departed="0" arrived="8" entered="9" left="0" laneChangedFrom="0" laneChangedTo="0"/>
        <edge id="830650862" sampledSeconds="83.30" traveltime="3.29" overlapTraveltime="3.49" density="9.87" laneDensity="4.94" occupancy="2.47" waitingTime="0.00" timeLoss="3.53" speed="25.63" speedRelative="0.92" departed="26" arrived="0" entered="0" left="25" laneChangedFrom="0" laneChangedTo="0"/>
        <edge id="830653153" sampledSeconds="9.38" traveltime="3.13" overlapTraveltime="3.32" density="1.15" laneDensity="0.57" occupancy="0.29" waitingTime="0.00" timeLoss="0.81" speed="26.15" speedRelative="0.94" departed="0" arrived="3" entered="3" left="0" laneChangedFrom="0" laneChangedTo="0"/>
        <edge id="830653154#10" sampledSeconds="1.37" traveltime="0.69" overlapTraveltime="17.84" density="68.60" laneDensity="34.30" occupancy="17.15" waitingTime="0.00" timeLoss="1.36" speed="0.29" speedRelative="0.01" departed="0" arrived="0" entered="2" left="2" laneChangedFrom="0" laneChangedTo="0"/>
        <edge id="830653154#11" sampledSeconds="20.01" traveltime="6.67" overlapTraveltime="6.86" density="1.15" laneDensity="0.57" occupancy="0.29" waitingTime="0.00" timeLoss="1.73" speed="26.14" speedRelative="0.94" departed="0" arrived="0" entered="3" left="3" laneChangedFrom="0" laneChangedTo="0"/>
        <edge id="830653154#7" sampledSeconds="52.07" traveltime="7.27" overlapTraveltime="7.46" density="2.73" laneDensity="1.36" occupancy="0.68" waitingTime="0.00" timeLoss="0.00" speed="26.28" speedRelative="0.95" departed="8" arrived="0" entered="0" left="7" laneChangedFrom="0" laneChangedTo="0"/>
        <edge id="830653154#8" sampledSeconds="0.71" traveltime="0.06" overlapTraveltime="1.68" density="35.55" laneDensity="17.77" occupancy="8.89" waitingTime="0.00" timeLoss="0.63" speed="3.09" speedRelative="0.11" departed="0" arrived="0" entered="11" left="11" laneChangedFrom="0" laneChangedTo="0"/>
        <edge id="830653154#9" sampledSeconds="179.35" traveltime="36.70" overlapTraveltime="36.88" density="1.75" laneDensity="0.88" occupancy="0.44" waitingTime="0.00" timeLoss="4.00" speed="27.91" speedRelative="1.00" departed="0" arrived="0" entered="9" left="4" laneChangedFrom="0" laneChangedTo="0"/>
        <edge id="833484976" sampledSeconds="5.50" traveltime="5.50" overlapTraveltime="5.73" density="0.46" laneDensity="0.46" occupancy="0.23" waitingTime="0.00" timeLoss="0.34" speed="21.55" speedRelative="0.97" departed="0" arrived="0" entered="1" left="1" laneChangedFrom="0" laneChangedTo="0"/>
        <edge id="833484977" sampledSeconds="4.69" traveltime="4.69" overlapTraveltime="4.90" density="0.44" laneDensity="0.44" occupancy="0.22" waitingTime="0.00" timeLoss="0.00" speed="22.99" speedRelative="1.03" departed="1" arrived="0" entered="0" left="1" laneChangedFrom="0" laneChangedTo="0"/>
        <edge id="833484978" sampledSeconds="8.77" traveltime="4.38" overlapTraveltime="4.59" density="0.83" laneDensity="0.83" occupancy="0.42" waitingTime="0.00" timeLoss="0.00" speed="24.01" speedRelative="1.08" departed="0" arrived="2" entered="2" left="0" laneChangedFrom="0" laneChangedTo="0"/>
        <edge id="833484979" sampledSeconds="9.96" traveltime="4.98" overlapTraveltime="5.19" density="0.83" laneDensity="0.83" occupancy="0.42" waitingTime="0.00" timeLoss="0.00" speed="24.01" speedRelative="1.08" departed="0" arrived="0" entered="2" left="2" laneChangedFrom="0" laneChangedTo="0"/>
        <edge id="E0" sampledSeconds="8.62" traveltime="0.96" overlapTraveltime="1.18" density="4.01" laneDensity="4.01" occupancy="2.01" waitingTime="0.00" timeLoss="0.00" speed="22.44" speedRelative="1.01" departed="0" arrived="0" entered="9" left="9" laneChangedFrom="0" laneChangedTo="0"/>
    </interval>
    <interval begin="100.00" end="200.00" id="test_1">
        <edge id="-364638850" sampledSeconds="0.00" departed="0" arrived="0" entered="0" left="0" laneChangedFrom="0" laneChangedTo="0"/>
        <edge id="1154482313#0" sampledSeconds="0.70" traveltime="0.04" overlapTraveltime="1.13" density="34.80" laneDensity="34.80" occupancy="17.40" waitingTime="0.00" timeLoss="0.58" speed="4.60" speedRelative="0.17" departed="0" arrived="0" entered="16" left="16" laneChangedFrom="0" laneChangedTo="0"/>
        <edge id="1154482314#2" sampledSeconds="0.41" traveltime="0.10" overlapTraveltime="2.66" density="20.45" laneDensity="6.82" occupancy="3.41" waitingTime="0.00" timeLoss="0.38" speed="1.96" speedRelative="0.07" departed="0" arrived="0" entered="4" left="4" laneChangedFrom="0" laneChangedTo="0"/>
        <edge id="185495393" sampledSeconds="23.26" traveltime="13.22" overlapTraveltime="13.39" density="0.63" laneDensity="0.63" occupancy="0.31" waitingTime="0.00" timeLoss="0.00" speed="28.14" speedRelative="1.01" departed="0" arrived="3" entered="2" left="0" laneChangedFrom="0" laneChangedTo="0"/>
        <edge id="219627712" sampledSeconds="89.61" traveltime="9.58" overlapTraveltime="9.80" density="4.12" laneDensity="4.12" occupancy="2.06" waitingTime="0.00" timeLoss="0.00" speed="22.70" speedRelative="1.02" departed="0" arrived="0" entered="9" left="10" laneChangedFrom="0" laneChangedTo="0"/>
        <edge id="219627713.31.8" sampledSeconds="740.80" traveltime="38.58" overlapTraveltime="38.83" density="9.73" laneDensity="9.73" occupancy="4.87" waitingTime="0.00" timeLoss="73.77" speed="19.73" speedRelative="0.89" departed="0" arrived="0" entered="19" left="13" laneChangedFrom="0" laneChangedTo="0"/>
        <edge id="219628424" sampledSeconds="27.65" traveltime="4.61" overlapTraveltime="4.78" density="2.10" laneDensity="1.05" occupancy="0.53" waitingTime="0.00" timeLoss="0.00" speed="28.56" speedRelative="1.03" departed="0" arrived="0" entered="6" left="6" laneChangedFrom="0" laneChangedTo="0"/>
        <edge id="219628425#0" sampledSeconds="0.00" departed="0" arrived="0" entered="0" left="0" laneChangedFrom="0" laneChangedTo="0"/>
        <edge id="219628425#1" sampledSeconds="25.82" traveltime="8.61" overlapTraveltime="8.85" density="1.46" laneDensity="1.46" occupancy="0.73" waitingTime="0.00" timeLoss="0.37" speed="20.48" speedRelative="0.92" departed="0" arrived="0" entered="3" left="3" laneChangedFrom="0" laneChangedTo="0"/>
        <edge id="219628426#0" sampledSeconds="14.73" traveltime="1.13" overlapTraveltime="1.39" density="6.57" laneDensity="6.57" occupancy="3.28" waitingTime="0.00" timeLoss="1.35" speed="19.80" speedRelative="0.89" departed="0" arrived="0" entered="13" left="13" laneChangedFrom="0" laneChangedTo="0"/>
        <edge id="219628426#1" sampledSeconds="182.01" traveltime="16.50" overlapTraveltime="16.75" density="5.64" laneDensity="5.64" occupancy="2.82" waitingTime="0.00" timeLoss="17.50" speed="19.57" speedRelative="0.88" departed="0" arrived="0" entered="13" left="10" laneChangedFrom="0" laneChangedTo="0"/>
        <edge id="219628427" sampledSeconds="148.68" traveltime="11.44" overlapTraveltime="11.68" density="6.32" laneDensity="6.32" occupancy="3.16" waitingTime="0.00" timeLoss="11.08" speed="20.57" speedRelative="0.93" departed="0" arrived="0" entered="13" left="13" laneChangedFrom="0" laneChangedTo="0"/>
        <edge id="219628428" sampledSeconds="53.02" traveltime="3.81" overlapTraveltime="4.06" density="6.92" laneDensity="6.92" occupancy="3.46" waitingTime="0.00" timeLoss="4.60" speed="20.09" speedRelative="0.90" departed="0" arrived="0" entered="14" left="13" laneChangedFrom="0" laneChangedTo="0"/>
        <edge id="219628429#0" sampledSeconds="3.51" traveltime="0.70" overlapTraveltime="0.88" density="1.79" laneDensity="0.90" occupancy="0.45" waitingTime="0.00" timeLoss="0.00" speed="27.92" speedRelative="1.01" departed="0" arrived="0" entered="5" left="5" laneChangedFrom="0" laneChangedTo="0"/>
        <edge id="219628429#1" sampledSeconds="6.46" traveltime="5.77" overlapTraveltime="5.95" density="0.41" laneDensity="0.21" occupancy="0.10" waitingTime="0.00" timeLoss="0.00" speed="27.05" speedRelative="0.97" departed="0" arrived="0" entered="2" left="1" laneChangedFrom="0" laneChangedTo="0"/>
        <edge id="219628429#2" sampledSeconds="1.75" traveltime="1.75" overlapTraveltime="1.93" density="0.37" laneDensity="0.18" occupancy="0.09" waitingTime="0.00" timeLoss="0.00" speed="27.11" speedRelative="0.98" departed="0" arrived="0" entered="1" left="1" laneChangedFrom="0" laneChangedTo="0"/>
        <edge id="219628429#3" sampledSeconds="24.45" traveltime="3.49" overlapTraveltime="3.67" density="2.47" laneDensity="1.23" occupancy="0.62" waitingTime="0.00" timeLoss="0.00" speed="28.35" speedRelative="1.02" departed="0" arrived="0" entered="7" left="7" laneChangedFrom="0" laneChangedTo="0"/>
        <edge id="219628429#4" sampledSeconds="194.08" traveltime="11.78" overlapTraveltime="11.96" density="5.98" laneDensity="2.99" occupancy="1.49" waitingTime="0.00" timeLoss="3.29" speed="27.55" speedRelative="0.99" departed="0" arrived="0" entered="17" left="15" laneChangedFrom="0" laneChangedTo="0"/>
        <edge id="219628429#5" sampledSeconds="177.50" traveltime="12.12" overlapTraveltime="12.31" density="5.55" laneDensity="2.78" occupancy="1.39" waitingTime="0.00" timeLoss="11.57" speed="26.36" speedRelative="0.95" departed="0" arrived="0" entered="14" left="15" laneChangedFrom="0" laneChangedTo="0"/>
        <edge id="219628430" sampledSeconds="32.25" traveltime="15.25" overlapTraveltime="15.49" density="1.01" laneDensity="1.01" occupancy="0.50" waitingTime="0.00" timeLoss="0.00" speed="20.99" speedRelative="0.94" departed="0" arrived="0" entered="1" left="3" laneChangedFrom="0" laneChangedTo="0"/>
        <edge id="219628431" sampledSeconds="0.00" departed="0" arrived="0" entered="0" left="0" laneChangedFrom="0" laneChangedTo="0"/>