<?xml version="1.0" encoding="UTF-8"?>

<!-- generated on 2023-11-02 00:45:00 by Eclipse SUMO GUI Version 1.18.0
<configuration xmlns:xsi="http://www.w3.org/2001/XMLSchema-instance" xsi:noNamespaceSchemaLocation="http://sumo.dlr.de/xsd/sumoConfiguration.xsd">

    <input>
        <net-file value="/Users/christtzm/tzm/PyWork/trans_llm/TrafficGPT/real-world-simulation-withTLS/gen_net/test4_1.net.xml"/>
        <route-files value="/Users/christtzm/tzm/PyWork/trans_llm/TrafficGPT/real-world-simulation-withTLS/gen_net/test4_2.rou.xml"/>
        <additional-files value="/Users/christtzm/tzm/PyWork/trans_llm/TrafficGPT/real-world-simulation-withTLS/gen_net/add.add.xml"/>
    </input>

    <processing>
        <collision.action value="none"/>
        <time-to-teleport value="1000"/>
    </processing>

    <gui_only>
        <gui-settings-file value="/Users/christtzm/tzm/PyWork/trans_llm/TrafficGPT/real-world-simulation-withTLS/gen_net/viewsettings.xml"/>
    </gui_only>

</configuration>
-->

<meandata xmlns:xsi="http://www.w3.org/2001/XMLSchema-instance" xsi:noNamespaceSchemaLocation="http://sumo.dlr.de/xsd/meandata_file.xsd">
    <interval begin="0.00" end="100.00" id="test_1">
        <edge id="-364638850" sampledSeconds="0.00" departed="0" arrived="0" entered="0" left="0" laneChangedFrom="0" laneChangedTo="0"/>
        <edge id="1154482313#0" sampledSeconds="1.23" traveltime="0.04" overlapTraveltime="1.23" density="61.56" laneDensity="61.56" occupancy="1.19" waitingTime="0.00" timeLoss="0.19" speed="4.22" speedRelative="0.15" departed="0" arrived="0" entered="1" left="1" laneChangedFrom="0" laneChangedTo="0"/>
        <edge id="1154482314#2" sampledSeconds="15.78" traveltime="6.57" overlapTraveltime="7.89" density="400.00" laneDensity="133.33" occupancy="2.95" waitingTime="13.00" timeLoss="14.80" speed="0.66" speedRelative="0.02" departed="0" arrived="0" entered="2" left="2" laneChangedFrom="0" laneChangedTo="0"/>
        <edge id="185495393" sampledSeconds="21.74" traveltime="21.18" overlapTraveltime="21.47" density="0.58" laneDensity="0.58" occupancy="0.28" waitingTime="0.00" timeLoss="6.67" speed="17.55" speedRelative="0.63" departed="0" arrived="0" entered="2" left="0" laneChangedFrom="0" laneChangedTo="0"/>
        <edge id="219627712" sampledSeconds="0.00" departed="0" arrived="0" entered="0" left="0" laneChangedFrom="0" laneChangedTo="0"/>
        <edge id="219627713.31.8" sampledSeconds="123.03" traveltime="37.03" overlapTraveltime="37.27" density="1.62" laneDensity="1.62" occupancy="0.80" waitingTime="0.00" timeLoss="4.32" speed="20.56" speedRelative="0.93" departed="0" arrived="0" entered="4" left="2" laneChangedFrom="0" laneChangedTo="0"/>
        <edge id="219628424" sampledSeconds="65.78" traveltime="6.58" overlapTraveltime="6.77" density="5.00" laneDensity="2.50" occupancy="1.20" waitingTime="0.00" timeLoss="18.86" speed="20.16" speedRelative="0.73" departed="0" arrived="0" entered="10" left="9" laneChangedFrom="0" laneChangedTo="0"/>
        <edge id="219628425#0" sampledSeconds="0.00" departed="0" arrived="0" entered="0" left="0" laneChangedFrom="0" laneChangedTo="0"/>
        <edge id="219628425#1" sampledSeconds="7.23" traveltime="7.03" overlapTraveltime="7.23" density="0.41" laneDensity="0.41" occupancy="0.20" waitingTime="0.00" timeLoss="0.16" speed="25.07" speedRelative="1.13" departed="0" arrived="0" entered="1" left="1" laneChangedFrom="0" laneChangedTo="0"/>
        <edge id="219628426#0" sampledSeconds="2.64" traveltime="1.08" overlapTraveltime="1.32" density="1.18" laneDensity="1.18" occupancy="0.48" waitingTime="0.00" timeLoss="0.12" speed="20.80" speedRelative="0.94" departed="0" arrived="0" entered="2" left="2" laneChangedFrom="0" laneChangedTo="0"/>
        <edge id="219628426#1" sampledSeconds="35.92" traveltime="20.82" overlapTraveltime="21.14" density="1.11" laneDensity="1.11" occupancy="0.55" waitingTime="5.00" timeLoss="10.58" speed="15.51" speedRelative="0.70" departed="0" arrived="0" entered="2" left="0" laneChangedFrom="0" laneChangedTo="0"/>
        <edge id="219628427" sampledSeconds="22.72" traveltime="11.12" overlapTraveltime="11.36" density="0.97" laneDensity="0.97" occupancy="0.47" waitingTime="0.00" timeLoss="0.69" speed="21.15" speedRelative="0.95" departed="0" arrived="0" entered="2" left="2" laneChangedFrom="0" laneChangedTo="0"/>
        <edge id="219628428" sampledSeconds="7.69" traveltime="3.61" overlapTraveltime="3.84" density="1.00" laneDensity="1.00" occupancy="0.47" waitingTime="0.00" timeLoss="0.20" speed="21.24" speedRelative="0.96" departed="0" arrived="0" entered="2" left="2" laneChangedFrom="0" laneChangedTo="0"/>
        <edge id="219628429#0" sampledSeconds="0.00" departed="0" arrived="0" entered="0" left="0" laneChangedFrom="0" laneChangedTo="0"/>
        <edge id="219628429#1" sampledSeconds="0.00" departed="0" arrived="0" entered="0" left="0" laneChangedFrom="0" laneChangedTo="0"/>
        <edge id="219628429#2" sampledSeconds="0.00" departed="0" arrived="0" entered="0" left="0" laneChangedFrom="0" laneChangedTo="0"/>
        <edge id="219628429#3" sampledSeconds="32.52" traveltime="3.61" overlapTraveltime="3.79" density="3.28" laneDensity="1.64" occupancy="0.78" waitingTime="0.00" timeLoss="0.82" speed="27.43" speedRelative="0.99" departed="0" arrived="0" entered="9" left="8" laneChangedFrom="0" laneChangedTo="0"/>
        <edge id="219628429#4" sampledSeconds="83.76" traveltime="12.07" overlapTraveltime="12.30" density="2.58" laneDensity="1.29" occupancy="0.63" waitingTime="0.00" timeLoss="3.47" speed="26.79" speedRelative="0.96" departed="0" arrived="0" entered="8" left="6" laneChangedFrom="0" laneChangedTo="0"/>
        <edge id="219628429#5" sampledSeconds="43.40" traveltime="12.19" overlapTraveltime="12.39" density="1.36" laneDensity="0.68" occupancy="0.33" waitingTime="0.00" timeLoss="0.93" speed="26.21" speedRelative="0.94" departed="0" arrived="0" entered="5" left="2" laneChangedFrom="0" laneChangedTo="0"/>
        <edge id="219628430" sampledSeconds="15.22" traveltime="15.02" overlapTraveltime="15.22" density="0.48" laneDensity="0.48" occupancy="0.23" waitingTime="0.00" timeLoss="2.55" speed="21.35" speedRelative="0.96" departed="0" arrived="0" entered="1" left="1" laneChangedFrom="0" laneChangedTo="0"/>
        <edge id="219628431" sampledSeconds="0.00" departed="0" arrived="0" entered="0" left="0" laneChangedFrom="0" laneChangedTo="0"/>
        <edge id="219628432" sampledSeconds="10.39" traveltime="11.33" overlapTraveltime="11.53" density="0.37" laneDensity="0.37" occupancy="0.18" waitingTime="0.00" timeLoss="0.26" speed="25.00" speedRelative="1.13" departed="0" arrived="0" entered="1" left="0" laneChangedFrom="0" laneChangedTo="0"/>
        <edge id="219628433" sampledSeconds="0.00" departed="0" arrived="0" entered="0" left="0" laneChangedFrom="0" laneChangedTo="0"/>
        <edge id="219628434" sampledSeconds="21.61" traveltime="10.57" overlapTraveltime="10.81" density="0.96" laneDensity="0.96" occupancy="0.47" waitingTime="0.00" timeLoss="0.53" speed="21.28" speedRelative="0.96" departed="0" arrived="0" entered="2" left="2" laneChangedFrom="0" laneChangedTo="0"/>
        <edge id="219822984#0" sampledSeconds="62.15" traveltime="10.30" overlapTraveltime="10.50" density="2.43" laneDensity="1.22" occupancy="0.60" waitingTime="0.00" timeLoss="1.48" speed="24.80" speedRelative="0.89" departed="0" arrived="0" entered="7" left="5" laneChangedFrom="2" laneChangedTo="2"/>
        <edge id="219822984#1" sampledSeconds="2.91" traveltime="2.72" overlapTraveltime="2.91" density="0.38" laneDensity="0.19" occupancy="0.09" waitingTime="0.00" timeLoss="0.02" speed="28.25" speedRelative="1.02" departed="0" arrived="0" entered="1" left="1" laneChangedFrom="0" laneChangedTo="0"/>
        <edge id="219822984#2" sampledSeconds="5.22" traveltime="4.95" overlapTraveltime="5.22" density="0.41" laneDensity="0.21" occupancy="0.10" waitingTime="0.00" timeLoss="0.44" speed="25.18" speedRelative="0.91" departed="0" arrived="0" entered="1" left="1" laneChangedFrom="0" laneChangedTo="0"/>
        <edge id="219822985#0" sampledSeconds="0.00" departed="0" arrived="0" entered="0" left="0" laneChangedFrom="0" laneChangedTo="0"/>
        <edge id="219822985#1" sampledSeconds="0.00" departed="0" arrived="0" entered="0" left="0" laneChangedFrom="0" laneChangedTo="0"/>
        <edge id="219822986#0" sampledSeconds="18.64" traveltime="8.64" overlapTraveltime="9.32" density="1.03" laneDensity="0.51" occupancy="0.25" waitingTime="0.00" timeLoss="3.73" speed="19.97" speedRelative="0.72" departed="0" arrived="0" entered="2" left="2" laneChangedFrom="0" laneChangedTo="0"/>
        <edge id="219822986#1" sampledSeconds="0.00" departed="0" arrived="0" entered="0" left="0" laneChangedFrom="0" laneChangedTo="0"/>
        <edge id="219822986#2" sampledSeconds="58.73" traveltime="8.05" overlapTraveltime="8.26" density="4.19" laneDensity="2.10" occupancy="1.00" waitingTime="0.00" timeLoss="18.01" speed="17.58" speedRelative="0.63" departed="0" arrived="0" entered="8" left="7" laneChangedFrom="5" laneChangedTo="5"/>
        <edge id="219822987" sampledSeconds="0.00" departed="0" arrived="0" entered="0" left="0" laneChangedFrom="0" laneChangedTo="0"/>
        <edge id="219822988" sampledSeconds="2.99" traveltime="2.71" overlapTraveltime="2.99" density="0.61" laneDensity="0.61" occupancy="0.28" waitingTime="0.00" timeLoss="0.16" speed="18.01" speedRelative="0.81" departed="0" arrived="0" entered="1" left="1" laneChangedFrom="0" laneChangedTo="0"/>
        <edge id="219822989" sampledSeconds="33.14" traveltime="16.32" overlapTraveltime="16.57" density="1.05" laneDensity="1.05" occupancy="0.52" waitingTime="0.00" timeLoss="0.95" speed="19.31" speedRelative="0.87" departed="0" arrived="0" entered="2" left="2" laneChangedFrom="0" laneChangedTo="0"/>
        <edge id="219822990#0" sampledSeconds="14.46" traveltime="3.32" overlapTraveltime="3.72" density="2.33" laneDensity="1.17" occupancy="0.54" waitingTime="0.00" timeLoss="3.26" speed="18.03" speedRelative="0.65" departed="0" arrived="0" entered="4" left="3" laneChangedFrom="0" laneChangedTo="0"/>
        <edge id="219822990#1" sampledSeconds="0.48" traveltime="0.02" overlapTraveltime="0.48" density="23.84" laneDensity="11.92" occupancy="0.23" waitingTime="0.00" timeLoss="0.26" speed="10.90" speedRelative="0.39" departed="0" arrived="0" entered="1" left="1" laneChangedFrom="0" laneChangedTo="0"/>
        <edge id="219822990#2" sampledSeconds="12.32" traveltime="14.18" overlapTraveltime="14.42" density="0.41" laneDensity="0.21" occupancy="0.10" waitingTime="0.00" timeLoss="1.44" speed="20.98" speedRelative="0.76" departed="0" arrived="0" entered="1" left="0" laneChangedFrom="0" laneChangedTo="0"/>
        <edge id="219822991" sampledSeconds="39.81" traveltime="19.65" overlapTraveltime="19.90" density="1.06" laneDensity="0.53" occupancy="0.26" waitingTime="0.00" timeLoss="1.40" speed="19.18" speedRelative="0.86" departed="0" arrived="0" entered="2" left="2" laneChangedFrom="2" laneChangedTo="2"/>
        <edge id="219823957" sampledSeconds="244.34" traveltime="24.03" overlapTraveltime="24.62" density="6.53" laneDensity="6.53" occupancy="3.23" waitingTime="0.00" timeLoss="100.30" speed="15.41" speedRelative="0.55" departed="12" arrived="0" entered="0" left="8" laneChangedFrom="0" laneChangedTo="0"/>
        <edge id="219860996" sampledSeconds="14.18" traveltime="8.45" overlapTraveltime="8.72" density="0.88" laneDensity="0.44" occupancy="0.21" waitingTime="0.00" timeLoss="0.53" speed="18.95" speedRelative="0.85" departed="0" arrived="0" entered="2" left="1" laneChangedFrom="0" laneChangedTo="0"/>
        <edge id="219860997#0" sampledSeconds="9.30" traveltime="24.94" overlapTraveltime="25.24" density="0.22" laneDensity="0.22" occupancy="0.11" waitingTime="0.00" timeLoss="1.34" speed="16.95" speedRelative="0.76" departed="0" arrived="0" entered="2" left="0" laneChangedFrom="0" laneChangedTo="0"/>
        <edge id="219860997#1" sampledSeconds="0.00" departed="0" arrived="0" entered="0" left="0" laneChangedFrom="0" laneChangedTo="0"/>
        <edge id="219860998" sampledSeconds="0.00" departed="0" arrived="0" entered="0" left="0" laneChangedFrom="0" laneChangedTo="0"/>
        <edge id="219860999" sampledSeconds="18.27" traveltime="8.87" overlapTraveltime="9.14" density="1.08" laneDensity="0.54" occupancy="0.26" waitingTime="0.00" timeLoss="0.69" speed="19.13" speedRelative="0.86" departed="0" arrived="0" entered="2" left="2" laneChangedFrom="0" laneChangedTo="0"/>
        <edge id="29496808#0" sampledSeconds="679.51" traveltime="24.52" overlapTraveltime="24.67" density="12.55" laneDensity="4.18" occupancy="2.09" waitingTime="0.00" timeLoss="299.00" speed="22.15" speedRelative="0.56" departed="33" arrived="0" entered="0" left="25" laneChangedFrom="3" laneChangedTo="3"/>
        <edge id="29496808#1" sampledSeconds="473.00" traveltime="24.85" overlapTraveltime="24.98" density="4.84" laneDensity="1.61" occupancy="0.80" waitingTime="0.00" timeLoss="8.43" speed="39.33" speedRelative="1.00" departed="0" arrived="0" entered="23" left="14" laneChangedFrom="3" laneChangedTo="3"/>
        <edge id="29496808#2" sampledSeconds="131.51" traveltime="9.40" overlapTraveltime="9.53" density="3.57" laneDensity="1.19" occupancy="0.59" waitingTime="0.00" timeLoss="3.01" speed="39.21" speedRelative="0.99" departed="0" arrived="0" entered="14" left="13" laneChangedFrom="0" laneChangedTo="0"/>
        <edge id="29496808#2.341" sampledSeconds="15.14" traveltime="1.09" overlapTraveltime="1.22" density="3.52" laneDensity="1.17" occupancy="0.53" waitingTime="0.00" timeLoss="0.22" speed="39.32" speedRelative="1.00" departed="0" arrived="12" entered="13" left="0" laneChangedFrom="0" laneChangedTo="0"/>
        <edge id="364638850" sampledSeconds="0.00" departed="0" arrived="0" entered="0" left="0" laneChangedFrom="0" laneChangedTo="0"/>
        <edge id="364638851" sampledSeconds="0.00" departed="0" arrived="0" entered="0" left="0" laneChangedFrom="0" laneChangedTo="0"/>
        <edge id="394700607" sampledSeconds="4.80" traveltime="18.71" overlapTraveltime="18.98" density="0.14" laneDensity="0.14" occupancy="0.07" waitingTime="0.00" timeLoss="0.16" speed="18.40" speedRelative="0.83" departed="0" arrived="0" entered="1" left="0" laneChangedFrom="0" laneChangedTo="0"/>
        <edge id="394700608" sampledSeconds="0.00" departed="0" arrived="0" entered="0" left="0" laneChangedFrom="0" laneChangedTo="0"/>
        <edge id="394700612" sampledSeconds="0.00" departed="0" arrived="0" entered="0" left="0" laneChangedFrom="0" laneChangedTo="0"/>
        <edge id="478181242" sampledSeconds="1.13" traveltime="0.93" overlapTraveltime="1.13" density="0.49" laneDensity="0.49" occupancy="0.20" waitingTime="0.00" timeLoss="0.03" speed="25.00" speedRelative="1.13" departed="0" arrived="0" entered="1" left="1" laneChangedFrom="0" laneChangedTo="0"/>
        <edge id="478181243" sampledSeconds="2.89" traveltime="2.69" overlapTraveltime="2.89" density="0.43" laneDensity="0.43" occupancy="0.20" waitingTime="0.00" timeLoss="0.08" speed="24.91" speedRelative="1.12" departed="0" arrived="0" entered="1" left="1" laneChangedFrom="0" laneChangedTo="0"/>
        <edge id="478190549" sampledSeconds="2.39" traveltime="0.95" overlapTraveltime="1.19" density="1.18" laneDensity="1.18" occupancy="0.47" waitingTime="0.00" timeLoss="0.08" speed="21.08" speedRelative="0.95" departed="0" arrived="0" entered="2" left="2" laneChangedFrom="0" laneChangedTo="0"/>
        <edge id="478966536" sampledSeconds="1.41" traveltime="1.13" overlapTraveltime="1.41" density="0.69" laneDensity="0.35" occupancy="0.14" waitingTime="0.00" timeLoss="0.07" speed="18.04" speedRelative="0.81" departed="0" arrived="0" entered="1" left="1" laneChangedFrom="0" laneChangedTo="0"/>
        <edge id="479199823" sampledSeconds="0.00" departed="0" arrived="0" entered="0" left="0" laneChangedFrom="0" laneChangedTo="0"/>
        <edge id="55083473#1.4.32" sampledSeconds="201.80" traveltime="6.92" overlapTraveltime="7.27" density="44.87" laneDensity="14.96" occupancy="7.27" waitingTime="0.00" timeLoss="159.64" speed="6.87" speedRelative="0.21" departed="33" arrived="0" entered="0" left="30" laneChangedFrom="0" laneChangedTo="0"/>
        <edge id="55083473#1.4.49" sampledSeconds="1013.60" traveltime="58.31" overlapTraveltime="58.47" density="5.65" laneDensity="1.88" occupancy="0.94" waitingTime="0.00" timeLoss="84.91" speed="30.76" speedRelative="0.92" departed="0" arrived="0" entered="26" left="9" laneChangedFrom="13" laneChangedTo="13"/>
        <edge id="55083473#2" sampledSeconds="23.47" traveltime="3.03" overlapTraveltime="3.18" density="2.37" laneDensity="0.79" occupancy="0.38" waitingTime="0.00" timeLoss="0.86" speed="32.70" speedRelative="0.98" departed="0" arrived="7" entered="8" left="0" laneChangedFrom="0" laneChangedTo="0"/>
        <edge id="830650861#0" sampledSeconds="108.42" traveltime="4.25" overlapTraveltime="4.52" density="12.48" laneDensity="6.24" occupancy="2.93" waitingTime="0.00" timeLoss="26.16" speed="20.34" speedRelative="0.73" departed="0" arrived="0" entered="25" left="24" laneChangedFrom="8" laneChangedTo="8"/>
        <edge id="830650861#1" sampledSeconds="81.33" traveltime="5.76" overlapTraveltime="6.39" density="9.19" laneDensity="4.60" occupancy="2.15" waitingTime="0.00" timeLoss="37.80" speed="14.64" speedRelative="0.53" departed="0" arrived="0" entered="14" left="12" laneChangedFrom="3" laneChangedTo="3"/>
        <edge id="830650861#2" sampledSeconds="262.68" traveltime="26.14" overlapTraveltime="26.33" density="4.27" laneDensity="2.14" occupancy="1.05" waitingTime="0.00" timeLoss="34.58" speed="23.53" speedRelative="0.85" departed="0" arrived="0" entered="12" left="8" laneChangedFrom="6" laneChangedTo="6"/>
        <edge id="830650861#3" sampledSeconds="84.04" traveltime="10.40" overlapTraveltime="10.88" density="3.88" laneDensity="1.94" occupancy="0.94" waitingTime="0.00" timeLoss="20.92" speed="20.35" speedRelative="0.73" departed="0" arrived="0" entered="8" left="5" laneChangedFrom="2" laneChangedTo="2"/>
        <edge id="830650861#4" sampledSeconds="52.02" traveltime="8.42" overlapTraveltime="8.67" density="3.37" laneDensity="1.68" occupancy="0.81" waitingTime="0.00" timeLoss="16.17" speed="18.40" speedRelative="0.66" departed="0" arrived="0" entered="6" left="6" laneChangedFrom="0" laneChangedTo="0"/>
        <edge id="830650861#5" sampledSeconds="46.89" traveltime="8.15" overlapTraveltime="8.35" density="2.44" laneDensity="1.22" occupancy="0.59" waitingTime="0.00" timeLoss="5.76" speed="23.66" speedRelative="0.85" departed="0" arrived="5" entered="7" left="0" laneChangedFrom="0" laneChangedTo="0"/>
        <edge id="830650862" sampledSeconds="221.86" traveltime="9.15" overlapTraveltime="9.42" density="26.30" laneDensity="13.15" occupancy="6.48" waitingTime="0.00" timeLoss="146.69" speed="9.49" speedRelative="0.34" departed="26" arrived="0" entered="0" left="25" laneChangedFrom="0" laneChangedTo="0"/>
        <edge id="830653153" sampledSeconds="10.22" traveltime="3.21" overlapTraveltime="3.41" density="1.25" laneDensity="0.62" occupancy="0.29" waitingTime="0.00" timeLoss="0.31" speed="25.47" speedRelative="0.92" departed="0" arrived="3" entered="3" left="0" laneChangedFrom="0" laneChangedTo="0"/>
        <edge id="830653154#10" sampledSeconds="0.41" traveltime="0.01" overlapTraveltime="0.20" density="20.28" laneDensity="10.14" occupancy="0.19" waitingTime="0.00" timeLoss="0.00" speed="25.65" speedRelative="0.92" departed="0" arrived="0" entered="2" left="2" laneChangedFrom="0" laneChangedTo="0"/>
        <edge id="830653154#11" sampledSeconds="24.57" traveltime="7.99" overlapTraveltime="8.19" density="1.41" laneDensity="0.70" occupancy="0.34" waitingTime="0.00" timeLoss="4.08" speed="21.90" speedRelative="0.79" departed="0" arrived="0" entered="3" left="3" laneChangedFrom="0" laneChangedTo="0"/>
        <edge id="830653154#7" sampledSeconds="99.85" traveltime="14.32" overlapTraveltime="14.62" density="5.23" laneDensity="2.61" occupancy="1.29" waitingTime="0.00" timeLoss="52.61" speed="13.40" speedRelative="0.48" departed="8" arrived="0" entered="0" left="7" laneChangedFrom="3" laneChangedTo="3"/>
        <edge id="830653154#8" sampledSeconds="4.13" traveltime="0.02" overlapTraveltime="0.52" density="206.69" laneDensity="103.34" occupancy="1.99" waitingTime="0.00" timeLoss="1.30" speed="10.06" speedRelative="0.36" departed="0" arrived="0" entered="8" left="8" laneChangedFrom="0" laneChangedTo="0"/>
        <edge id="830653154#9" sampledSeconds="156.26" traveltime="40.51" overlapTraveltime="40.87" density="1.53" laneDensity="0.76" occupancy="0.38" waitingTime="0.00" timeLoss="10.63" speed="25.19" speedRelative="0.91" departed="0" arrived="0" entered="5" left="3" laneChangedFrom="1" laneChangedTo="1"/>
        <edge id="833484976" sampledSeconds="8.40" traveltime="7.59" overlapTraveltime="8.40" density="0.71" laneDensity="0.71" occupancy="0.33" waitingTime="0.00" timeLoss="2.03" speed="14.70" speedRelative="0.66" departed="0" arrived="0" entered="1" left="1" laneChangedFrom="0" laneChangedTo="0"/>
        <edge id="833484977" sampledSeconds="9.91" traveltime="10.14" overlapTraveltime="10.38" density="0.92" laneDensity="0.92" occupancy="0.45" waitingTime="0.00" timeLoss="4.98" speed="10.86" speedRelative="0.49" departed="1" arrived="0" entered="0" left="1" laneChangedFrom="0" laneChangedTo="0"/>
        <edge id="833484978" sampledSeconds="5.00" traveltime="4.77" overlapTraveltime="5.00" density="0.47" laneDensity="0.47" occupancy="0.23" waitingTime="0.00" timeLoss="0.13" speed="22.06" speedRelative="0.99" departed="0" arrived="1" entered="1" left="0" laneChangedFrom="0" laneChangedTo="0"/>
        <edge id="833484979" sampledSeconds="8.75" traveltime="8.53" overlapTraveltime="8.75" density="0.73" laneDensity="0.73" occupancy="0.34" waitingTime="0.00" timeLoss="3.25" speed="14.24" speedRelative="0.64" departed="0" arrived="0" entered="1" left="1" laneChangedFrom="0" laneChangedTo="0"/>
        <edge id="E0" sampledSeconds="6.49" traveltime="1.33" overlapTraveltime="1.62" density="3.02" laneDensity="3.02" occupancy="1.22" waitingTime="0.00" timeLoss="1.53" speed="16.33" speedRelative="0.73" departed="0" arrived="0" entered="4" left="4" laneChangedFrom="0" laneChangedTo="0"/>
    </interval>
    <interval begin="100.00" end="200.00" id="test_1">
        <edge id="-364638850" sampledSeconds="0.00" departed="0" arrived="0" entered="0" left="0" laneChangedFrom="0" laneChangedTo="0"/>
        <edge id="1154482313#0" sampledSeconds="30.27" traveltime="1.36" overlapTraveltime="2.92" density="133.33" laneDensity="133.33" occupancy="21.78" waitingTime="13.82" timeLoss="21.17" speed="1.78" speedRelative="0.06" departed="0" arrived="0" entered="11" left="11" laneChangedFrom="0" laneChangedTo="0"/>
        <edge id="1154482314#2" sampledSeconds="19.45" traveltime="11.71" overlapTraveltime="19.09" density="400.00" laneDensity="133.33" occupancy="3.38" waitingTime="17.00" timeLoss="19.01" speed="0.27" speedRelative="0.01" departed="0" arrived="0" entered="2" left="1" laneChangedFrom="1" laneChangedTo="1"/>
        <edge id="185495393" sampledSeconds="48.87" traveltime="16.99" overlapTraveltime="17.18" density="1.31" laneDensity="1.31" occupancy="0.64" waitingTime="0.00" timeLoss="7.32" speed="21.93" speedRelative="0.79" departed="0" arrived="3" entered="2" left="0" laneChangedFrom="0" laneChangedTo="0"/>
        <edge id="219627712" sampledSeconds="85.23" traveltime="10.62" overlapTraveltime="10.86" density="3.92" laneDensity="3.92" occupancy="1.92" waitingTime="0.00" timeLoss="3.61" speed="20.48" speedRelative="0.92" departed="0" arrived="0" entered="8" left="7" laneChangedFrom="0" laneChangedTo="0"/>
        <edge id="219627713.31.8" sampledSeconds="196.59" traveltime="36.93" overlapTraveltime="37.17" density="2.58" laneDensity="2.58" occupancy="1.28" waitingTime="0.00" timeLoss="7.23" speed="20.61" speedRelative="0.93" departed="0" arrived="0" entered="6" left="5" laneChangedFrom="0" laneChangedTo="0"/>
        <edge id="219628424" sampledSeconds="43.44" traveltime="6.72" overlapTraveltime="6.91" density="3.30" laneDensity="1.65" occupancy="0.79" waitingTime="0.00" timeLoss="11.28" speed="19.78" speedRelative="0.71" departed="0" arrived="0" entered="6" left="7" laneChangedFrom="0" laneChangedTo="0"/>
        <edge id="219628425#0" sampledSeconds="0.00" departed="0" arrived="0" entered="0" left="0" laneChangedFrom="0" laneChangedTo="0"/>
        <edge id="219628425#1" sampledSeconds="15.77" traveltime="7.67" overlapTraveltime="7.89" density="0.89" laneDensity="0.89" occupancy="0.44" waitingTime="0.00" timeLoss="0.41" speed="22.98" speedRelative="1.03" departed="0" arrived="0" entered="2" left="2" laneChangedFrom="0" laneChangedTo="0"/>
        <edge id="219628426#0" sampledSeconds="2.71" traveltime="1.11" overlapTraveltime="1.36" density="1.21" laneDensity="1.21" occupancy="0.49" waitingTime="0.00" timeLoss="0.09" speed="20.23" speedRelative="0.91" departed="0" arrived="0" entered="2" left="2" laneChangedFrom="0" laneChangedTo="0"/>
        <edge id="219628426#1" sampledSeconds="54.64" traveltime="22.41" overlapTraveltime="23.75" density="1.69" laneDensity="1.69" occupancy="0.82" waitingTime="7.00" timeLoss="18.74" speed="13.80" speedRelative="0.62" departed="0" arrived="0" entered="2" left="4" laneChangedFrom="0" laneChangedTo="0"/>
        <edge id="219628427" sampledSeconds="38.26" traveltime="11.08" overlapTraveltime="11.32" density="1.63" laneDensity="1.63" occupancy="0.79" waitingTime="0.00" timeLoss="1.14" speed="21.24" speedRelative="0.96" departed="0" arrived="0" entered="5" left="3" laneChangedFrom="0" laneChangedTo="0"/>
        <edge id="219628428" sampledSeconds="8.05" traveltime="3.79" overlapTraveltime="4.03" density="1.05" laneDensity="1.05" occupancy="0.49" waitingTime="0.00" timeLoss="0.25" speed="20.27" speedRelative="0.91" departed="0" arrived="0" entered="2" left="2" laneChangedFrom="0" laneChangedTo="0"/>
        <edge id="219628429#0" sampledSeconds="5.97" traveltime="1.16" overlapTraveltime="1.49" density="3.05" laneDensity="1.53" occupancy="0.61" waitingTime="0.00" timeLoss="1.23" speed="16.46" speedRelative="0.59" departed="0" arrived="0" entered="4" left="4" laneChangedFrom="0" laneChangedTo="0"/>
        <edge id="219628429#1" sampledSeconds="0.00" departed="0" arrived="0" entered="0" left="0" laneChangedFrom="0" laneChangedTo="0"/>
        <edge id="219628429#2" sampledSeconds="0.00" departed="0" arrived="0" entered="0" left="0" laneChangedFrom="0" laneChangedTo="0"/>
        <edge id="219628429#3" sampledSeconds="24.70" traveltime="3.83" overlapTraveltime="4.02" density="2.49" laneDensity="1.25" occupancy="0.59" waitingTime="0.00" timeLoss="0.67" speed="25.86" speedRelative="0.93" departed="0" arrived="0" entered="6" left="6" laneChangedFrom="0" laneChangedTo="0"/>
        <edge id="219628429#4" sampledSeconds="156.71" traveltime="13.71" overlapTraveltime="14.00" density="4.83" laneDensity="2.41" occupancy="1.18" waitingTime="0.00" timeLoss="17.46" speed="23.54" speedRelative="0.85" departed="0" arrived="0" entered="10" left="12" laneChangedFrom="2" laneChangedTo="2"/>
        <edge id="219628429#5" sampledSeconds="136.12" traveltime="12.74" overlapTraveltime="12.97" density="4.26" laneDensity="2.13" occupancy="1.05" waitingTime="0.00" timeLoss="7.46" speed="25.03" speedRelative="0.90" departed="0" arrived="0" entered="9" left="12" laneChangedFrom="0" laneChangedTo="0"/>
        <edge id="219628430" sampledSeconds="46.99" traveltime="16.69" overlapTraveltime="16.93" density="1.47" laneDensity="1.47" occupancy="0.72" waitingTime="0.00" timeLoss="7.97" speed="19.20" speedRelative="0.86" departed="0" arrived="0" entered="3" left="2" laneChangedFrom="0" laneChangedTo="0"/>
        <edge id="219628431" sampledSeconds="0.00" departed="0" arrived="0" entered="0" left="0" laneChangedFrom="0" laneChangedTo="0"/>
        <edge id="219628432" sampledSeconds="85.14" traveltime="13.72" overlapTraveltime="13.96" density="3.00" laneDensity="3.00" occupancy="1.47" waitingTime="0.00" timeLoss="3.10" speed="20.66" speedRelative="0.93" departed="0" arrived="0" entered="6" left="7" laneChangedFrom="0" laneChangedTo="0"/>
        <edge id="219628433" sampledSeconds="396.48" traveltime="58.42" overlapTraveltime="58.81" density="5.29" laneDensity="5.29" occupancy="2.64" waitingTime="119.00" timeLoss="164.21" speed="12.83" speedRelative="0.58" departed="0" arrived="0" entered="7" left="0" laneChangedFrom="0" laneChangedTo="0"/>
        <edge id="219628434" sampledSeconds="28.65" traveltime="10.61" overlapTraveltime="10.86" density="1.27" laneDensity="1.27" occupancy="0.62" waitingTime="0.00" timeLoss="0.80" speed="21.18" speedRelative="0.95" departed="0" arrived="0" entered="3" left="2" laneChangedFrom="0" laneChangedTo="0"/>
        <edge id="219822984#0" sampledSeconds="195.59" traveltime="10.45" overlapTraveltime="10.64" density="7.66" laneDensity="3.83" occupancy="1.88" waitingTime="0.00" timeLoss="16.05" speed="24.47" speedRelative="0.88" departed="0" arrived="0" entered="19" left="17" laneChangedFrom="4" laneChangedTo="4"/>
        <edge id="219822984#1" sampledSeconds="39.04" traveltime="3.04" overlapTraveltime="3.25" density="5.05" laneDensity="2.52" occupancy="1.18" waitingTime="0.00" timeLoss="2.41" speed="25.30" speedRelative="0.91" departed="0" arrived="0" entered="12" left="12" laneChangedFrom="0" laneChangedTo="0"/>
        <edge id="219822984#2" sampledSeconds="69.55" traveltime="5.50" overlapTraveltime="5.80" density="5.51" laneDensity="2.75" occupancy="1.32" waitingTime="0.00" timeLoss="10.47" speed="22.64" speedRelative="0.81" departed="0" arrived="0" entered="12" left="12" laneChangedFrom="0" laneChangedTo="0"/>