<?xml version="1.0" encoding="UTF-8"?>

<!-- generated on 2023-11-25 21:26:06 by Eclipse SUMO GUI Version 1.18.0
<configuration xmlns:xsi="http://www.w3.org/2001/XMLSchema-instance" xsi:noNamespaceSchemaLocation="http://sumo.dlr.de/xsd/sumoConfiguration.xsd">

    <input>
        <net-file value="./real-world-simulation-withTLS/gen_net/test4_1.net.xml"/>
        <route-files value="./real-world-simulation-withTLS/gen_net/test4_2.rou.xml"/>
        <additional-files value="./real-world-simulation-withTLS/gen_net/add.add.xml"/>
    </input>

    <processing>
        <collision.action value="none"/>
        <time-to-teleport value="1000"/>
    </processing>

    <traci_server>
        <remote-port value="51488"/>
    </traci_server>

    <gui_only>
        <gui-settings-file value="./real-world-simulation-withTLS/gen_net/viewsettings.xml"/>
    </gui_only>

</configuration>
-->

<meandata xmlns:xsi="http://www.w3.org/2001/XMLSchema-instance" xsi:noNamespaceSchemaLocation="http://sumo.dlr.de/xsd/meandata_file.xsd">
    <interval begin="0.00" end="100.00" id="test_1">
        <edge id="-364638850" sampledSeconds="0.00" departed="0" arrived="0" entered="0" left="0" laneChangedFrom="0" laneChangedTo="0"/>
        <edge id="1154482313#0" sampledSeconds="0.00" departed="0" arrived="0" entered="0" left="0" laneChangedFrom="0" laneChangedTo="0"/>
        <edge id="1154482314#2" sampledSeconds="0.00" departed="0" arrived="0" entered="0" left="0" laneChangedFrom="0" laneChangedTo="0"/>
        <edge id="185495393" sampledSeconds="0.00" departed="0" arrived="0" entered="0" left="0" laneChangedFrom="0" laneChangedTo="0"/>
        <edge id="219627712" sampledSeconds="169.46" traveltime="12.25" overlapTraveltime="12.58" density="7.79" laneDensity="7.79" occupancy="3.81" waitingTime="0.00" timeLoss="36.70" speed="17.67" speedRelative="0.80" departed="0" arrived="0" entered="17" left="9" laneChangedFrom="0" laneChangedTo="0"/>
        <edge id="219627713.31.8" sampledSeconds="0.00" departed="0" arrived="0" entered="0" left="0" laneChangedFrom="0" laneChangedTo="0"/>
        <edge id="219628424" sampledSeconds="208.78" traveltime="6.70" overlapTraveltime="6.90" density="15.86" laneDensity="7.93" occupancy="3.80" waitingTime="0.00" timeLoss="62.11" speed="19.80" speedRelative="0.71" departed="0" arrived="0" entered="31" left="29" laneChangedFrom="0" laneChangedTo="0"/>
        <edge id="219628425#0" sampledSeconds="0.00" departed="0" arrived="0" entered="0" left="0" laneChangedFrom="0" laneChangedTo="0"/>
        <edge id="219628425#1" sampledSeconds="0.00" departed="0" arrived="0" entered="0" left="0" laneChangedFrom="0" laneChangedTo="0"/>
        <edge id="219628426#0" sampledSeconds="0.00" departed="0" arrived="0" entered="0" left="0" laneChangedFrom="0" laneChangedTo="0"/>
        <edge id="219628426#1" sampledSeconds="0.00" departed="0" arrived="0" entered="0" left="0" laneChangedFrom="0" laneChangedTo="0"/>
        <edge id="219628427" sampledSeconds="0.00" departed="0" arrived="0" entered="0" left="0" laneChangedFrom="0" laneChangedTo="0"/>
        <edge id="219628428" sampledSeconds="0.00" departed="0" arrived="0" entered="0" left="0" laneChangedFrom="0" laneChangedTo="0"/>
        <edge id="219628429#0" sampledSeconds="0.00" departed="0" arrived="0" entered="0" left="0" laneChangedFrom="0" laneChangedTo="0"/>
        <edge id="219628429#1" sampledSeconds="0.00" departed="0" arrived="0" entered="0" left="0" laneChangedFrom="0" laneChangedTo="0"/>
        <edge id="219628429#2" sampledSeconds="0.00" departed="0" arrived="0" entered="0" left="0" laneChangedFrom="0" laneChangedTo="0"/>
        <edge id="219628429#3" sampledSeconds="108.16" traveltime="3.79" overlapTraveltime="3.98" density="10.93" laneDensity="5.46" occupancy="2.60" waitingTime="0.00" timeLoss="9.45" speed="26.10" speedRelative="0.94" departed="0" arrived="0" entered="28" left="27" laneChangedFrom="0" laneChangedTo="0"/>
        <edge id="219628429#4" sampledSeconds="307.08" traveltime="12.65" overlapTraveltime="12.85" density="9.46" laneDensity="4.73" occupancy="2.33" waitingTime="0.00" timeLoss="30.66" speed="25.65" speedRelative="0.92" departed="0" arrived="0" entered="27" left="21" laneChangedFrom="0" laneChangedTo="0"/>
        <edge id="219628429#5" sampledSeconds="307.91" traveltime="16.60" overlapTraveltime="16.99" density="9.64" laneDensity="4.82" occupancy="2.37" waitingTime="0.00" timeLoss="100.67" speed="19.10" speedRelative="0.69" departed="0" arrived="0" entered="20" left="16" laneChangedFrom="0" laneChangedTo="0"/>
        <edge id="219628430" sampledSeconds="0.00" departed="0" arrived="0" entered="0" left="0" laneChangedFrom="0" laneChangedTo="0"/>
        <edge id="219628431" sampledSeconds="0.00" departed="0" arrived="0" entered="0" left="0" laneChangedFrom="0" laneChangedTo="0"/>
        <edge id="219628432" sampledSeconds="0.00" departed="0" arrived="0" entered="0" left="0" laneChangedFrom="0" laneChangedTo="0"/>
        <edge id="219628433" sampledSeconds="0.00" departed="0" arrived="0" entered="0" left="0" laneChangedFrom="0" laneChangedTo="0"/>
        <edge id="219628434" sampledSeconds="0.00" departed="0" arrived="0" entered="0" left="0" laneChangedFrom="0" laneChangedTo="0"/>
        <edge id="219822984#0" sampledSeconds="222.83" traveltime="9.90" overlapTraveltime="10.11" density="8.72" laneDensity="4.36" occupancy="2.14" waitingTime="0.00" timeLoss="17.53" speed="25.76" speedRelative="0.93" departed="0" arrived="0" entered="24" left="20" laneChangedFrom="0" laneChangedTo="0"/>
        <edge id="219822984#1" sampledSeconds="0.00" departed="0" arrived="0" entered="0" left="0" laneChangedFrom="0" laneChangedTo="0"/>
        <edge id="219822984#2" sampledSeconds="0.00" departed="0" arrived="0" entered="0" left="0" laneChangedFrom="0" laneChangedTo="0"/>
        <edge id="219822985#0" sampledSeconds="0.00" departed="0" arrived="0" entered="0" left="0" laneChangedFrom="0" laneChangedTo="0"/>
        <edge id="219822985#1" sampledSeconds="0.00" departed="0" arrived="0" entered="0" left="0" laneChangedFrom="0" laneChangedTo="0"/>
        <edge id="219822986#0" sampledSeconds="0.00" departed="0" arrived="0" entered="0" left="0" laneChangedFrom="0" laneChangedTo="0"/>
        <edge id="219822986#1" sampledSeconds="0.00" departed="0" arrived="0" entered="0" left="0" laneChangedFrom="0" laneChangedTo="0"/>
        <edge id="219822986#2" sampledSeconds="208.33" traveltime="8.26" overlapTraveltime="8.46" density="14.86" laneDensity="7.43" occupancy="3.55" waitingTime="0.00" timeLoss="80.56" speed="17.15" speedRelative="0.62" departed="0" arrived="0" entered="25" left="24" laneChangedFrom="25" laneChangedTo="25"/>
        <edge id="219822988" sampledSeconds="0.00" departed="0" arrived="0" entered="0" left="0" laneChangedFrom="0" laneChangedTo="0"/>
        <edge id="219822989" sampledSeconds="0.00" departed="0" arrived="0" entered="0" left="0" laneChangedFrom="0" laneChangedTo="0"/>
        <edge id="219822990#0" sampledSeconds="70.26" traveltime="3.38" overlapTraveltime="3.74" density="11.32" laneDensity="5.66" occupancy="2.62" waitingTime="0.00" timeLoss="21.52" speed="17.94" speedRelative="0.65" departed="0" arrived="0" entered="19" left="18" laneChangedFrom="0" laneChangedTo="0"/>
        <edge id="219822990#1" sampledSeconds="0.00" departed="0" arrived="0" entered="0" left="0" laneChangedFrom="0" laneChangedTo="0"/>
        <edge id="219822990#2" sampledSeconds="0.00" departed="0" arrived="0" entered="0" left="0" laneChangedFrom="0" laneChangedTo="0"/>
        <edge id="219822991" sampledSeconds="0.00" departed="0" arrived="0" entered="0" left="0" laneChangedFrom="0" laneChangedTo="0"/>
        <edge id="219823957" sampledSeconds="606.00" traveltime="21.67" overlapTraveltime="22.36" density="16.19" laneDensity="16.19" occupancy="7.97" waitingTime="0.00" timeLoss="232.77" speed="16.96" speedRelative="0.61" departed="29" arrived="0" entered="0" left="25" laneChangedFrom="0" laneChangedTo="0"/>
        <edge id="219860996" sampledSeconds="0.00" departed="0" arrived="0" entered="0" left="0" laneChangedFrom="0" laneChangedTo="0"/>
        <edge id="219860997#0" sampledSeconds="290.70" traveltime="21.00" overlapTraveltime="21.23" density="6.88" laneDensity="6.88" occupancy="3.39" waitingTime="0.00" timeLoss="30.78" speed="20.15" speedRelative="0.91" departed="0" arrived="0" entered="18" left="9" laneChangedFrom="0" laneChangedTo="0"/>
        <edge id="219860997#1" sampledSeconds="119.28" traveltime="15.64" overlapTraveltime="15.96" density="6.01" laneDensity="6.01" occupancy="2.96" waitingTime="0.00" timeLoss="54.05" speed="12.76" speedRelative="0.57" departed="0" arrived="0" entered="9" left="5" laneChangedFrom="0" laneChangedTo="0"/>
        <edge id="219860998" sampledSeconds="0.00" departed="0" arrived="0" entered="0" left="0" laneChangedFrom="0" laneChangedTo="0"/>
        <edge id="219860999" sampledSeconds="0.00" departed="0" arrived="0" entered="0" left="0" laneChangedFrom="0" laneChangedTo="0"/>
        <edge id="29496808#0" sampledSeconds="4290.38" traveltime="30.60" overlapTraveltime="30.87" density="76.54" laneDensity="25.51" occupancy="12.71" waitingTime="0.00" timeLoss="707.63" speed="18.32" speedRelative="0.83" departed="168" arrived="0" entered="0" left="115" laneChangedFrom="14" laneChangedTo="14"/>
        <edge id="29496808#1" sampledSeconds="3368.31" traveltime="43.67" overlapTraveltime="43.99" density="42.33" laneDensity="14.11" occupancy="7.01" waitingTime="0.00" timeLoss="538.27" speed="18.20" speedRelative="0.83" departed="0" arrived="0" entered="114" left="37" laneChangedFrom="4" laneChangedTo="4"/>
        <edge id="364638850" sampledSeconds="0.00" departed="0" arrived="0" entered="0" left="0" laneChangedFrom="0" laneChangedTo="0"/>
        <edge id="364638851" sampledSeconds="0.00" departed="0" arrived="0" entered="0" left="0" laneChangedFrom="0" laneChangedTo="0"/>
        <edge id="394700607" sampledSeconds="0.00" departed="0" arrived="0" entered="0" left="0" laneChangedFrom="0" laneChangedTo="0"/>
        <edge id="394700608" sampledSeconds="77.77" traveltime="4.06" overlapTraveltime="4.32" density="9.94" laneDensity="9.94" occupancy="4.67" waitingTime="0.00" timeLoss="12.21" speed="19.26" speedRelative="0.87" departed="0" arrived="0" entered="19" left="18" laneChangedFrom="0" laneChangedTo="0"/>
        <edge id="394700612" sampledSeconds="36.86" traveltime="2.22" overlapTraveltime="2.50" density="9.90" laneDensity="9.90" occupancy="4.37" waitingTime="0.00" timeLoss="9.46" speed="16.92" speedRelative="0.76" departed="0" arrived="0" entered="15" left="14" laneChangedFrom="0" laneChangedTo="0"/>
        <edge id="478181242" sampledSeconds="0.00" departed="0" arrived="0" entered="0" left="0" laneChangedFrom="0" laneChangedTo="0"/>
        <edge id="478181243" sampledSeconds="0.00" departed="0" arrived="0" entered="0" left="0" laneChangedFrom="0" laneChangedTo="0"/>
        <edge id="478190549" sampledSeconds="0.00" departed="0" arrived="0" entered="0" left="0" laneChangedFrom="0" laneChangedTo="0"/>
        <edge id="478966536" sampledSeconds="0.00" departed="0" arrived="0" entered="0" left="0" laneChangedFrom="0" laneChangedTo="0"/>
        <edge id="479199823" sampledSeconds="24.26" traveltime="1.16" overlapTraveltime="1.43" density="11.11" laneDensity="11.11" occupancy="4.51" waitingTime="0.00" timeLoss="4.26" speed="18.83" speedRelative="0.85" departed="0" arrived="0" entered="18" left="17" laneChangedFrom="0" laneChangedTo="0"/>
        <edge id="55083473#1.4.32" sampledSeconds="0.00" departed="0" arrived="0" entered="0" left="0" laneChangedFrom="0" laneChangedTo="0"/>
        <edge id="55083473#1.4.49" sampledSeconds="0.00" departed="0" arrived="0" entered="0" left="0" laneChangedFrom="0" laneChangedTo="0"/>
        <edge id="55083473#2" sampledSeconds="0.00" departed="0" arrived="0" entered="0" left="0" laneChangedFrom="0" laneChangedTo="0"/>
        <edge id="830650861#0" sampledSeconds="161.09" traveltime="4.73" overlapTraveltime="5.11" density="18.55" laneDensity="9.27" occupancy="4.36" waitingTime="0.00" timeLoss="47.97" speed="17.99" speedRelative="0.65" departed="0" arrived="0" entered="32" left="31" laneChangedFrom="0" laneChangedTo="0"/>
        <edge id="830650861#1" sampledSeconds="0.00" departed="0" arrived="0" entered="0" left="0" laneChangedFrom="0" laneChangedTo="0"/>
        <edge id="830650861#2" sampledSeconds="0.00" departed="0" arrived="0" entered="0" left="0" laneChangedFrom="0" laneChangedTo="0"/>
        <edge id="830650861#3" sampledSeconds="0.00" departed="0" arrived="0" entered="0" left="0" laneChangedFrom="0" laneChangedTo="0"/>
        <edge id="830650861#4" sampledSeconds="0.00" departed="0" arrived="0" entered="0" left="0" laneChangedFrom="0" laneChangedTo="0"/>
        <edge id="830650861#5" sampledSeconds="0.00" departed="0" arrived="0" entered="0" left="0" laneChangedFrom="0" laneChangedTo="0"/>
        <edge id="830650862" sampledSeconds="160.04" traveltime="5.07" overlapTraveltime="5.30" density="18.97" laneDensity="9.49" occupancy="4.63" waitingTime="0.00" timeLoss="64.10" speed="16.85" speedRelative="0.61" departed="32" arrived="0" entered="0" left="32" laneChangedFrom="15" laneChangedTo="15"/>
        <edge id="830653153" sampledSeconds="0.00" departed="0" arrived="0" entered="0" left="0" laneChangedFrom="0" laneChangedTo="0"/>
        <edge id="830653154#10" sampledSeconds="0.00" departed="0" arrived="0" entered="0" left="0" laneChangedFrom="0" laneChangedTo="0"/>
        <edge id="830653154#11" sampledSeconds="0.00" departed="0" arrived="0" entered="0" left="0" laneChangedFrom="0" laneChangedTo="0"/>
        <edge id="830653154#7" sampledSeconds="0.00" departed="0" arrived="0" entered="0" left="0" laneChangedFrom="0" laneChangedTo="0"/>
        <edge id="830653154#8" sampledSeconds="0.00" departed="0" arrived="0" entered="0" left="0" laneChangedFrom="0" laneChangedTo="0"/>
        <edge id="830653154#9" sampledSeconds="0.00" departed="0" arrived="0" entered="0" left="0" laneChangedFrom="0" laneChangedTo="0"/>
        <edge id="833484976" sampledSeconds="0.00" departed="0" arrived="0" entered="0" left="0" laneChangedFrom="0" laneChangedTo="0"/>
        <edge id="833484977" sampledSeconds="0.00" departed="0" arrived="0" entered="0" left="0" laneChangedFrom="0" laneChangedTo="0"/>
        <edge id="833484978" sampledSeconds="0.00" departed="0" arrived="0" entered="0" left="0" laneChangedFrom="0" laneChangedTo="0"/>
        <edge id="833484979" sampledSeconds="0.00" departed="0" arrived="0" entered="0" left="0" laneChangedFrom="0" laneChangedTo="0"/>
        <edge id="E0" sampledSeconds="0.00" departed="0" arrived="0" entered="0" left="0" laneChangedFrom="0" laneChangedTo="0"/>
        <edge id="ramp1" sampledSeconds="97.68" traveltime="25.21" overlapTraveltime="25.55" density="2.66" laneDensity="2.66" occupancy="1.31" waitingTime="0.00" timeLoss="11.97" speed="14.56" speedRelative="0.91" departed="0" arrived="0" entered="9" left="1" laneChangedFrom="0" laneChangedTo="0"/>
        <edge id="ramp1In" sampledSeconds="1.38" traveltime="0.99" overlapTraveltime="1.38" density="1.02" laneDensity="1.02" occupancy="0.38" waitingTime="0.00" timeLoss="0.11" speed="13.44" speedRelative="0.96" departed="0" arrived="0" entered="1" left="1" laneChangedFrom="0" laneChangedTo="0"/>
        <edge id="ramp1Merge" sampledSeconds="129.66" traveltime="6.66" overlapTraveltime="7.16" density="19.97" laneDensity="4.99" occupancy="2.32" waitingTime="0.00" timeLoss="15.48" speed="9.77" speedRelative="0.89" departed="0" arrived="0" entered="23" left="13" laneChangedFrom="1" laneChangedTo="1"/>
        <edge id="ramp1MergeFrom" sampledSeconds="269.67" traveltime="8.66" overlapTraveltime="9.13" density="23.31" laneDensity="7.77" occupancy="3.71" waitingTime="0.00" timeLoss="35.61" speed="13.22" speedRelative="0.83" departed="0" arrived="0" entered="37" left="23" laneChangedFrom="3" laneChangedTo="3"/>
        <edge id="ramp1MergeTo" sampledSeconds="136.93" traveltime="22.09" overlapTraveltime="22.35" density="3.21" laneDensity="1.07" occupancy="0.52" waitingTime="0.00" timeLoss="19.45" speed="19.34" speedRelative="0.88" departed="0" arrived="0" entered="12" left="0" laneChangedFrom="2" laneChangedTo="2"/>
    </interval>
    <interval begin="100.00" end="200.00" id="test_1">
        <edge id="-364638850" sampledSeconds="0.00" departed="0" arrived="0" entered="0" left="0" laneChangedFrom="0" laneChangedTo="0"/>
        <edge id="1154482313#0" sampledSeconds="0.00" departed="0" arrived="0" entered="0" left="0" laneChangedFrom="0" laneChangedTo="0"/>
        <edge id="1154482314#2" sampledSeconds="0.00" departed="0" arrived="0" entered="0" left="0" laneChangedFrom="0" laneChangedTo="0"/>
        <edge id="185495393" sampledSeconds="0.00" departed="0" arrived="0" entered="0" left="0" laneChangedFrom="0" laneChangedTo="0"/>
        <edge id="219627712" sampledSeconds="647.16" traveltime="13.22" overlapTraveltime="13.62" density="29.77" laneDensity="29.77" occupancy="14.52" waitingTime="0.00" timeLoss="161.07" speed="16.33" speedRelative="0.74" departed="0" arrived="0" entered="47" left="48" laneChangedFrom="0" laneChangedTo="0"/>
        <edge id="219627713.31.8" sampledSeconds="0.00" departed="0" arrived="0" entered="0" left="0" laneChangedFrom="0" laneChangedTo="0"/>
        <edge id="219628424" sampledSeconds="155.89" traveltime="6.76" overlapTraveltime="6.96" density="11.85" laneDensity="5.92" occupancy="2.84" waitingTime="0.00" timeLoss="43.92" speed="19.62" speedRelative="0.71" departed="0" arrived="0" entered="23" left="23" laneChangedFrom="0" laneChangedTo="0"/>
        <edge id="219628425#0" sampledSeconds="0.00" departed="0" arrived="0" entered="0" left="0" laneChangedFrom="0" laneChangedTo="0"/>
        <edge id="219628425#1" sampledSeconds="0.00" departed="0" arrived="0" entered="0" left="0" laneChangedFrom="0" laneChangedTo="0"/>
        <edge id="219628426#0" sampledSeconds="0.00" departed="0" arrived="0" entered="0" left="0" laneChangedFrom="0" laneChangedTo="0"/>
        <edge id="219628426#1" sampledSeconds="0.00" departed="0" arrived="0" entered="0" left="0" laneChangedFrom="0" laneChangedTo="0"/>
        <edge id="219628427" sampledSeconds="0.00" departed="0" arrived="0" entered="0" left="0" laneChangedFrom="0" laneChangedTo="0"/>
        <edge id="219628428" sampledSeconds="0.00" departed="0" arrived="0" entered="0" left="0" laneChangedFrom="0" laneChangedTo="0"/>
        <edge id="219628429#0" sampledSeconds="0.00" departed="0" arrived="0" entered="0" left="0" laneChangedFrom="0" laneChangedTo="0"/>
        <edge id="219628429#1" sampledSeconds="0.00" departed="0" arrived="0" entered="0" left="0" laneChangedFrom="0" laneChangedTo="0"/>
        <edge id="219628429#2" sampledSeconds="0.00" departed="0" arrived="0" entered="0" left="0" laneChangedFrom="0" laneChangedTo="0"/>
        <edge id="219628429#3" sampledSeconds="105.18" traveltime="4.03" overlapTraveltime="4.23" density="10.62" laneDensity="5.31" occupancy="2.53" waitingTime="0.00" timeLoss="9.59" speed="24.57" speedRelative="0.88" departed="0" arrived="0" entered="24" left="25" laneChangedFrom="0" laneChangedTo="0"/>
        <edge id="219628429#4" sampledSeconds="373.58" traveltime="13.40" overlapTraveltime="13.61" density="11.51" laneDensity="5.75" occupancy="2.83" waitingTime="0.00" timeLoss="42.00" speed="24.21" speedRelative="0.87" departed="0" arrived="0" entered="25" left="28" laneChangedFrom="0" laneChangedTo="0"/>
        <edge id="219628429#5" sampledSeconds="925.92" traveltime="33.81" overlapTraveltime="34.36" density="28.97" laneDensity="14.49" occupancy="7.17" waitingTime="3.00" timeLoss="606.75" speed="9.45" speedRelative="0.34" departed="0" arrived="0" entered="29" left="21" laneChangedFrom="0" laneChangedTo="0"/>
        <edge id="219628430" sampledSeconds="0.00" departed="0" arrived="0" entered="0" left="0" laneChangedFrom="0" laneChangedTo="0"/>
        <edge id="219628431" sampledSeconds="0.00" departed="0" arrived="0" entered="0" left="0" laneChangedFrom="0" laneChangedTo="0"/>
        <edge id="219628432" sampledSeconds="0.00" departed="0" arrived="0" entered="0" left="0" laneChangedFrom="0" laneChangedTo="0"/>
        <edge id="219628433" sampledSeconds="0.00" departed="0" arrived="0" entered="0" left="0" laneChangedFrom="0" laneChangedTo="0"/>
        <edge id="219628434" sampledSeconds="0.00" departed="0" arrived="0" entered="0" left="0" laneChangedFrom="0" laneChangedTo="0"/>
        <edge id="219822984#0" sampledSeconds="260.64" traveltime="10.13" overlapTraveltime="10.34" density="10.20" laneDensity="5.10" occupancy="2.50" waitingTime="0.00" timeLoss="17.91" speed="25.18" speedRelative="0.91" departed="0" arrived="0" entered="26" left="26" laneChangedFrom="0" laneChangedTo="0"/>
        <edge id="219822984#1" sampledSeconds="0.00" departed="0" arrived="0" entered="0" left="0" laneChangedFrom="0" laneChangedTo="0"/>
        <edge id="219822984#2" sampledSeconds="0.00" departed="0" arrived="0" entered="0" left="0" laneChangedFrom="0" laneChangedTo="0"/>
        <edge id="219822985#0" sampledSeconds="0.00" departed="0" arrived="0" entered="0" left="0" laneChangedFrom="0" laneChangedTo="0"/>
        <edge id="219822985#1" sampledSeconds="0.00" departed="0" arrived="0" entered="0" left="0" laneChangedFrom="0" laneChangedTo="0"/>
        <edge id="219822986#0" sampledSeconds="0.00" departed="0" arrived="0" entered="0" left="0" laneChangedFrom="0" laneChangedTo="0"/>
        <edge id="219822986#1" sampledSeconds="0.00" departed="0" arrived="0" entered="0" left="0" laneChangedFrom="0" laneChangedTo="0"/>
        <edge id="219822986#2" sampledSeconds="216.70" traveltime="8.07" overlapTraveltime="8.27" density="15.46" laneDensity="7.73" occupancy="3.69" waitingTime="0.00" timeLoss="75.80" speed="17.55" speedRelative="0.63" departed="0" arrived="0" entered="28" left="26" laneChangedFrom="28" laneChangedTo="28"/>
        <edge id="219822988" sampledSeconds="0.00" departed="0" arrived="0" entered="0" left="0" laneChangedFrom="0" laneChangedTo="0"/>
        <edge id="219822989" sampledSeconds="0.00" departed="0" arrived="0" entered="0" left="0" laneChangedFrom="0" laneChangedTo="0"/>
        <edge id="219822990#0" sampledSeconds="104.39" traveltime="3.48" overlapTraveltime="3.84" density="16.82" laneDensity="8.41" occupancy="3.88" waitingTime="0.00" timeLoss="27.76" speed="17.48" speedRelative="0.63" departed="0" arrived="0" entered="27" left="28" laneChangedFrom="0" laneChangedTo="0"/>
        <edge id="219822990#1" sampledSeconds="0.00" departed="0" arrived="0" entered="0" left="0" laneChangedFrom="0" laneChangedTo="0"/>
        <edge id="219822990#2" sampledSeconds="0.00" departed="0" arrived="0" entered="0" left="0" laneChangedFrom="0" laneChangedTo="0"/>
        <edge id="219822991" sampledSeconds="0.00" departed="0" arrived="0" entered="0" left="0" laneChangedFrom="0" laneChangedTo="0"/>
        <edge id="219823957" sampledSeconds="607.67" traveltime="20.33" overlapTraveltime="20.97" density="16.23" laneDensity="16.23" occupancy="7.99" waitingTime="0.00" timeLoss="199.53" speed="18.09" speedRelative="0.65" departed="31" arrived="0" entered="0" left="28" laneChangedFrom="0" laneChangedTo="0"/>
        <edge id="219860996" sampledSeconds="0.00" departed="0" arrived="0" entered="0" left="0" laneChangedFrom="0" laneChangedTo="0"/>
        <edge id="219860997#0" sampledSeconds="615.37" traveltime="23.25" overlapTraveltime="23.53" density="14.56" laneDensity="14.56" occupancy="7.17" waitingTime="0.00" timeLoss="102.06" speed="18.18" speedRelative="0.82" departed="0" arrived="0" entered="28" left="28" laneChangedFrom="0" laneChangedTo="0"/>
        <edge id="219860997#1" sampledSeconds="752.34" traveltime="27.69" overlapTraveltime="27.99" density="37.88" laneDensity="37.88" occupancy="18.75" waitingTime="2.00" timeLoss="500.99" speed="7.27" speedRelative="0.33" departed="0" arrived="0" entered="28" left="26" laneChangedFrom="0" laneChangedTo="0"/>
        <edge id="219860998" sampledSeconds="0.00" departed="0" arrived="0" entered="0" left="0" laneChangedFrom="0" laneChangedTo="0"/>
        <edge id="219860999" sampledSeconds="0.00" departed="0" arrived="0" entered="0" left="0" laneChangedFrom="0" laneChangedTo="0"/>
        <edge id="29496808#0" sampledSeconds="5410.64" traveltime="32.30" overlapTraveltime="32.58" density="96.53" laneDensity="32.18" occupancy="16.02" waitingTime="0.00" timeLoss="1144.54" speed="17.36" speedRelative="0.79" departed="170" arrived="0" entered="0" left="166" laneChangedFrom="11" laneChangedTo="11"/>
        <edge id="29496808#1" sampledSeconds="8960.31" traveltime="56.91" overlapTraveltime="57.56" density="112.61" laneDensity="37.54" occupancy="18.63" waitingTime="3.00" timeLoss="3282.53" speed="13.91" speedRelative="0.63" departed="0" arrived="0" entered="165" left="130" laneChangedFrom="14" laneChangedTo="14"/>
        <edge id="364638850" sampledSeconds="0.00" departed="0" arrived="0" entered="0" left="0" laneChangedFrom="0" laneChangedTo="0"/>
        <edge id="364638851" sampledSeconds="0.00" departed="0" arrived="0" entered="0" left="0" laneChangedFrom="0" laneChangedTo="0"/>
        <edge id="394700607" sampledSeconds="0.00" departed="0" arrived="0" entered="0" left="0" laneChangedFrom="0" laneChangedTo="0"/>
        <edge id="394700608" sampledSeconds="201.69" traveltime="3.99" overlapTraveltime="4.25" density="25.77" laneDensity="25.77" occupancy="12.10" waitingTime="0.00" timeLoss="21.63" speed="19.58" speedRelative="0.88" departed="0" arrived="0" entered="47" left="47" laneChangedFrom="0" laneChangedTo="0"/>
        <edge id="394700612" sampledSeconds="58.99" traveltime="2.49" overlapTraveltime="2.78" density="15.85" laneDensity="15.85" occupancy="6.95" waitingTime="0.00" timeLoss="17.82" speed="15.19" speedRelative="0.68" departed="0" arrived="0" entered="21" left="22" laneChangedFrom="0" laneChangedTo="0"/>
        <edge id="478181242" sampledSeconds="0.00" departed="0" arrived="0" entered="0" left="0" laneChangedFrom="0" laneChangedTo="0"/>
        <edge id="478181243" sampledSeconds="0.00" departed="0" arrived="0" entered="0" left="0" laneChangedFrom="0" laneChangedTo="0"/>
        <edge id="478190549" sampledSeconds="0.00" departed="0" arrived="0" entered="0" left="0" laneChangedFrom="0" laneChangedTo="0"/>
        <edge id="478966536" sampledSeconds="0.00" departed="0" arrived="0" entered="0" left="0" laneChangedFrom="0" laneChangedTo="0"/>
        <edge id="479199823" sampledSeconds="65.80" traveltime="1.14" overlapTraveltime="1.40" density="30.11" laneDensity="30.11" occupancy="12.24" waitingTime="0.00" timeLoss="8.41" speed="19.20" speedRelative="0.86" departed="0" arrived="0" entered="47" left="47" laneChangedFrom="0" laneChangedTo="0"/>
        <edge id="55083473#1.4.32" sampledSeconds="0.00" departed="0" arrived="0" entered="0" left="0" laneChangedFrom="0" laneChangedTo="0"/>
        <edge id="55083473#1.4.49" sampledSeconds="0.00" departed="0" arrived="0" entered="0" left="0" laneChangedFrom="0" laneChangedTo="0"/>
        <edge id="55083473#2" sampledSeconds="0.00" departed="0" arrived="0" entered="0" left="0" laneChangedFrom="0" laneChangedTo="0"/>
        <edge id="830650861#0" sampledSeconds="114.68" traveltime="4.51" overlapTraveltime="4.89" density="13.20" laneDensity="6.60" occupancy="3.09" waitingTime="0.00" timeLoss="28.22" speed="18.78" speedRelative="0.68" departed="0" arrived="0" entered="23" left="24" laneChangedFrom="0" laneChangedTo="0"/>
        <edge id="830650861#1" sampledSeconds="0.00" departed="0" arrived="0" entered="0" left="0" laneChangedFrom="0" laneChangedTo="0"/>
        <edge id="830650861#2" sampledSeconds="0.00" departed="0" arrived="0" entered="0" left="0" laneChangedFrom="0" laneChangedTo="0"/>
        <edge id="830650861#3" sampledSeconds="0.00" departed="0" arrived="0" entered="0" left="0" laneChangedFrom="0" laneChangedTo="0"/>
        <edge id="830650861#4" sampledSeconds="0.00" departed="0" arrived="0" entered="0" left="0" laneChangedFrom="0" laneChangedTo="0"/>
        <edge id="830650861#5" sampledSeconds="0.00" departed="0" arrived="0" entered="0" left="0" laneChangedFrom="0" laneChangedTo="0"/>
        <edge id="830650862" sampledSeconds="116.55" traveltime="5.00" overlapTraveltime="5.23" density="13.82" laneDensity="6.91" occupancy="3.37" waitingTime="0.00" timeLoss="44.49" speed="17.08" speedRelative="0.61" departed="24" arrived="0" entered="0" left="23" laneChangedFrom="14" laneChangedTo="14"/>
        <edge id="830653153" sampledSeconds="0.00" departed="0" arrived="0" entered="0" left="0" laneChangedFrom="0" laneChangedTo="0"/>
        <edge id="830653154#10" sampledSeconds="0.00" departed="0" arrived="0" entered="0" left="0" laneChangedFrom="0" laneChangedTo="0"/>
        <edge id="830653154#11" sampledSeconds="0.00" departed="0" arrived="0" entered="0" left="0" laneChangedFrom="0" laneChangedTo="0"/>
        <edge id="830653154#7" sampledSeconds="0.00" departed="0" arrived="0" entered="0" left="0" laneChangedFrom="0" laneChangedTo="0"/>
        <edge id="830653154#8" sampledSeconds="0.00" departed="0" arrived="0" entered="0" left="0" laneChangedFrom="0" laneChangedTo="0"/>
        <edge id="830653154#9" sampledSeconds="0.00" departed="0" arrived="0" entered="0" left="0" laneChangedFrom="0" laneChangedTo="0"/>
        <edge id="833484976" sampledSeconds="0.00" departed="0" arrived="0" entered="0" left="0" laneChangedFrom="0" laneChangedTo="0"/>
        <edge id="833484977" sampledSeconds="0.00" departed="0" arrived="0" entered="0" left="0" laneChangedFrom="0" laneChangedTo="0"/>
        <edge id="833484978" sampledSeconds="0.00" departed="0" arrived="0" entered="0" left="0" laneChangedFrom="0" laneChangedTo="0"/>