<?xml version="1.0" encoding="UTF-8"?>

<!-- generated on 2023-11-23 13:05:31 by Eclipse SUMO GUI Version 1.18.0
<configuration xmlns:xsi="http://www.w3.org/2001/XMLSchema-instance" xsi:noNamespaceSchemaLocation="http://sumo.dlr.de/xsd/sumoConfiguration.xsd">

    <input>
        <net-file value="./real-world-simulation-withTLS/gen_net/test4_1.net.xml"/>
        <route-files value="./real-world-simulation-withTLS/gen_net/test4_2.rou.xml"/>
        <additional-files value="./real-world-simulation-withTLS/gen_net/add.add.xml"/>
    </input>

    <processing>
        <collision.action value="none"/>
        <time-to-teleport value="1000"/>
    </processing>

    <traci_server>
        <remote-port value="53232"/>
    </traci_server>

    <gui_only>
        <gui-settings-file value="./real-world-simulation-withTLS/gen_net/viewsettings.xml"/>
    </gui_only>

</configuration>
-->

<meandata xmlns:xsi="http://www.w3.org/2001/XMLSchema-instance" xsi:noNamespaceSchemaLocation="http://sumo.dlr.de/xsd/meandata_file.xsd">
    <interval begin="0.00" end="100.00" id="test_1">
        <edge id="-364638850" sampledSeconds="0.00" departed="0" arrived="0" entered="0" left="0" laneChangedFrom="0" laneChangedTo="0"/>
        <edge id="1154482313#0" sampledSeconds="0.00" departed="0" arrived="0" entered="0" left="0" laneChangedFrom="0" laneChangedTo="0"/>
        <edge id="1154482314#2" sampledSeconds="0.00" departed="0" arrived="0" entered="0" left="0" laneChangedFrom="0" laneChangedTo="0"/>
        <edge id="185495393" sampledSeconds="0.00" departed="0" arrived="0" entered="0" left="0" laneChangedFrom="0" laneChangedTo="0"/>
        <edge id="219627712" sampledSeconds="0.00" departed="0" arrived="0" entered="0" left="0" laneChangedFrom="0" laneChangedTo="0"/>
        <edge id="219627713.31.8" sampledSeconds="179.81" traveltime="35.18" overlapTraveltime="35.41" density="2.37" laneDensity="2.37" occupancy="1.18" waitingTime="0.00" timeLoss="5.86" speed="21.54" speedRelative="0.97" departed="0" arrived="0" entered="7" left="4" laneChangedFrom="0" laneChangedTo="0"/>
        <edge id="219628424" sampledSeconds="22.35" traveltime="7.47" overlapTraveltime="7.71" density="1.70" laneDensity="0.85" occupancy="0.41" waitingTime="0.00" timeLoss="6.35" speed="17.72" speedRelative="0.64" departed="0" arrived="0" entered="4" left="2" laneChangedFrom="0" laneChangedTo="0"/>
        <edge id="219628425#0" sampledSeconds="0.00" departed="0" arrived="0" entered="0" left="0" laneChangedFrom="0" laneChangedTo="0"/>
        <edge id="219628425#1" sampledSeconds="19.85" traveltime="9.65" overlapTraveltime="9.92" density="1.13" laneDensity="1.13" occupancy="0.55" waitingTime="0.00" timeLoss="0.68" speed="18.27" speedRelative="0.82" departed="0" arrived="0" entered="2" left="2" laneChangedFrom="0" laneChangedTo="0"/>
        <edge id="219628426#0" sampledSeconds="2.39" traveltime="0.98" overlapTraveltime="1.20" density="1.07" laneDensity="1.07" occupancy="0.44" waitingTime="0.00" timeLoss="0.07" speed="22.93" speedRelative="1.03" departed="0" arrived="0" entered="2" left="2" laneChangedFrom="0" laneChangedTo="0"/>
        <edge id="219628426#1" sampledSeconds="31.65" traveltime="15.66" overlapTraveltime="16.11" density="0.98" laneDensity="0.98" occupancy="0.48" waitingTime="0.00" timeLoss="4.41" speed="20.35" speedRelative="0.92" departed="0" arrived="0" entered="2" left="1" laneChangedFrom="0" laneChangedTo="0"/>
        <edge id="219628427" sampledSeconds="44.40" traveltime="10.87" overlapTraveltime="11.10" density="1.89" laneDensity="1.89" occupancy="0.92" waitingTime="0.00" timeLoss="1.51" speed="21.65" speedRelative="0.97" departed="0" arrived="0" entered="4" left="4" laneChangedFrom="0" laneChangedTo="0"/>
        <edge id="219628428" sampledSeconds="7.08" traveltime="3.32" overlapTraveltime="3.54" density="0.92" laneDensity="0.92" occupancy="0.43" waitingTime="0.00" timeLoss="0.18" speed="23.04" speedRelative="1.04" departed="0" arrived="0" entered="2" left="2" laneChangedFrom="0" laneChangedTo="0"/>
        <edge id="219628429#0" sampledSeconds="1.33" traveltime="1.02" overlapTraveltime="1.33" density="0.68" laneDensity="0.34" occupancy="0.13" waitingTime="0.00" timeLoss="0.16" speed="18.51" speedRelative="0.67" departed="0" arrived="0" entered="1" left="1" laneChangedFrom="0" laneChangedTo="0"/>
        <edge id="219628429#1" sampledSeconds="0.00" departed="0" arrived="0" entered="0" left="0" laneChangedFrom="0" laneChangedTo="0"/>
        <edge id="219628429#2" sampledSeconds="0.00" departed="0" arrived="0" entered="0" left="0" laneChangedFrom="0" laneChangedTo="0"/>
        <edge id="219628429#3" sampledSeconds="9.07" traveltime="4.32" overlapTraveltime="4.54" density="0.92" laneDensity="0.46" occupancy="0.22" waitingTime="0.00" timeLoss="0.28" speed="22.93" speedRelative="0.83" departed="0" arrived="0" entered="2" left="2" laneChangedFrom="0" laneChangedTo="0"/>
        <edge id="219628429#4" sampledSeconds="36.80" traveltime="15.78" overlapTraveltime="16.38" density="1.13" laneDensity="0.57" occupancy="0.28" waitingTime="0.00" timeLoss="4.90" speed="20.12" speedRelative="0.72" departed="0" arrived="0" entered="3" left="2" laneChangedFrom="0" laneChangedTo="0"/>
        <edge id="219628429#5" sampledSeconds="0.00" departed="0" arrived="0" entered="0" left="0" laneChangedFrom="0" laneChangedTo="0"/>
        <edge id="219628430" sampledSeconds="39.16" traveltime="19.31" overlapTraveltime="19.58" density="1.22" laneDensity="1.22" occupancy="0.60" waitingTime="0.00" timeLoss="4.79" speed="16.60" speedRelative="0.75" departed="0" arrived="0" entered="2" left="2" laneChangedFrom="0" laneChangedTo="0"/>
        <edge id="219628431" sampledSeconds="0.00" departed="0" arrived="0" entered="0" left="0" laneChangedFrom="0" laneChangedTo="0"/>
        <edge id="219628432" sampledSeconds="5.96" traveltime="14.89" overlapTraveltime="15.16" density="0.21" laneDensity="0.21" occupancy="0.10" waitingTime="0.00" timeLoss="0.19" speed="19.03" speedRelative="0.86" departed="0" arrived="0" entered="2" left="0" laneChangedFrom="0" laneChangedTo="0"/>
        <edge id="219628433" sampledSeconds="0.00" departed="0" arrived="0" entered="0" left="0" laneChangedFrom="0" laneChangedTo="0"/>
        <edge id="219628434" sampledSeconds="39.81" traveltime="10.49" overlapTraveltime="10.71" density="1.77" laneDensity="1.77" occupancy="0.87" waitingTime="0.00" timeLoss="1.76" speed="21.47" speedRelative="0.97" departed="0" arrived="0" entered="4" left="2" laneChangedFrom="0" laneChangedTo="0"/>
        <edge id="219822984#0" sampledSeconds="54.91" traveltime="9.73" overlapTraveltime="9.92" density="2.15" laneDensity="1.07" occupancy="0.53" waitingTime="0.00" timeLoss="1.63" speed="26.24" speedRelative="0.94" departed="0" arrived="0" entered="6" left="4" laneChangedFrom="0" laneChangedTo="0"/>
        <edge id="219822984#1" sampledSeconds="4.03" traveltime="3.02" overlapTraveltime="3.23" density="0.52" laneDensity="0.26" occupancy="0.12" waitingTime="0.00" timeLoss="0.11" speed="25.45" speedRelative="0.92" departed="0" arrived="0" entered="2" left="1" laneChangedFrom="0" laneChangedTo="0"/>
        <edge id="219822984#2" sampledSeconds="5.82" traveltime="5.50" overlapTraveltime="5.82" density="0.46" laneDensity="0.23" occupancy="0.11" waitingTime="0.00" timeLoss="0.97" speed="22.56" speedRelative="0.81" departed="0" arrived="0" entered="1" left="1" laneChangedFrom="0" laneChangedTo="0"/>
        <edge id="219822985#0" sampledSeconds="0.00" departed="0" arrived="0" entered="0" left="0" laneChangedFrom="0" laneChangedTo="0"/>
        <edge id="219822985#1" sampledSeconds="0.00" departed="0" arrived="0" entered="0" left="0" laneChangedFrom="0" laneChangedTo="0"/>
        <edge id="219822986#0" sampledSeconds="0.00" departed="0" arrived="0" entered="0" left="0" laneChangedFrom="0" laneChangedTo="0"/>
        <edge id="219822986#1" sampledSeconds="0.00" departed="0" arrived="0" entered="0" left="0" laneChangedFrom="0" laneChangedTo="0"/>
        <edge id="219822986#2" sampledSeconds="50.54" traveltime="8.23" overlapTraveltime="8.42" density="3.61" laneDensity="1.80" occupancy="0.86" waitingTime="0.00" timeLoss="18.38" speed="17.23" speedRelative="0.62" departed="0" arrived="0" entered="6" left="6" laneChangedFrom="3" laneChangedTo="3"/>
        <edge id="219822987" sampledSeconds="0.00" departed="0" arrived="0" entered="0" left="0" laneChangedFrom="0" laneChangedTo="0"/>
        <edge id="219822988" sampledSeconds="0.00" departed="0" arrived="0" entered="0" left="0" laneChangedFrom="0" laneChangedTo="0"/>
        <edge id="219822989" sampledSeconds="56.38" traveltime="15.54" overlapTraveltime="15.80" density="1.79" laneDensity="1.79" occupancy="0.88" waitingTime="0.00" timeLoss="5.75" speed="20.26" speedRelative="0.91" departed="0" arrived="0" entered="4" left="3" laneChangedFrom="0" laneChangedTo="0"/>
        <edge id="219822990#0" sampledSeconds="8.42" traveltime="3.60" overlapTraveltime="4.21" density="1.36" laneDensity="0.68" occupancy="0.31" waitingTime="0.00" timeLoss="3.35" speed="15.93" speedRelative="0.57" departed="0" arrived="0" entered="2" left="2" laneChangedFrom="0" laneChangedTo="0"/>
        <edge id="219822990#1" sampledSeconds="1.41" traveltime="0.03" overlapTraveltime="0.71" density="70.57" laneDensity="35.29" occupancy="0.68" waitingTime="0.00" timeLoss="1.02" speed="7.37" speedRelative="0.27" departed="0" arrived="0" entered="2" left="2" laneChangedFrom="0" laneChangedTo="0"/>
        <edge id="219822990#2" sampledSeconds="15.25" traveltime="14.26" overlapTraveltime="14.50" density="0.51" laneDensity="0.26" occupancy="0.12" waitingTime="0.00" timeLoss="3.04" speed="20.86" speedRelative="0.75" departed="0" arrived="0" entered="2" left="1" laneChangedFrom="0" laneChangedTo="0"/>
        <edge id="219822991" sampledSeconds="15.24" traveltime="16.41" overlapTraveltime="16.63" density="0.40" laneDensity="0.20" occupancy="0.10" waitingTime="0.00" timeLoss="0.48" speed="22.96" speedRelative="1.03" departed="0" arrived="0" entered="2" left="0" laneChangedFrom="0" laneChangedTo="0"/>
        <edge id="219823957" sampledSeconds="190.25" traveltime="23.74" overlapTraveltime="24.36" density="5.08" laneDensity="5.08" occupancy="2.51" waitingTime="0.00" timeLoss="83.20" speed="15.57" speedRelative="0.56" departed="9" arrived="0" entered="0" left="6" laneChangedFrom="0" laneChangedTo="0"/>
        <edge id="219860996" sampledSeconds="0.00" departed="0" arrived="0" entered="0" left="0" laneChangedFrom="0" laneChangedTo="0"/>
        <edge id="219860997#0" sampledSeconds="0.00" departed="0" arrived="0" entered="0" left="0" laneChangedFrom="0" laneChangedTo="0"/>
        <edge id="219860997#1" sampledSeconds="0.00" departed="0" arrived="0" entered="0" left="0" laneChangedFrom="0" laneChangedTo="0"/>
        <edge id="219860998" sampledSeconds="0.00" departed="0" arrived="0" entered="0" left="0" laneChangedFrom="0" laneChangedTo="0"/>
        <edge id="219860999" sampledSeconds="0.00" departed="0" arrived="0" entered="0" left="0" laneChangedFrom="0" laneChangedTo="0"/>
        <edge id="29496808#0" sampledSeconds="694.58" traveltime="24.75" overlapTraveltime="24.90" density="12.83" laneDensity="4.28" occupancy="2.13" waitingTime="0.00" timeLoss="309.04" speed="21.95" speedRelative="0.56" departed="33" arrived="0" entered="0" left="26" laneChangedFrom="6" laneChangedTo="6"/>
        <edge id="29496808#1" sampledSeconds="635.86" traveltime="29.27" overlapTraveltime="34.45" density="6.81" laneDensity="2.27" occupancy="1.13" waitingTime="130.00" timeLoss="196.22" speed="27.23" speedRelative="0.69" departed="0" arrived="0" entered="22" left="15" laneChangedFrom="26" laneChangedTo="26"/>
        <edge id="29496808#1.959" sampledSeconds="27.34" traveltime="2.13" overlapTraveltime="2.31" density="6.15" laneDensity="2.05" occupancy="0.91" waitingTime="0.00" timeLoss="12.67" speed="21.35" speedRelative="0.00" departed="0" arrived="0" entered="13" left="11" laneChangedFrom="0" laneChangedTo="0"/>
        <edge id="29496808#2" sampledSeconds="103.07" traveltime="10.54" overlapTraveltime="10.68" density="2.80" laneDensity="0.93" occupancy="0.46" waitingTime="0.00" timeLoss="13.19" speed="34.98" speedRelative="0.89" departed="0" arrived="0" entered="11" left="8" laneChangedFrom="0" laneChangedTo="0"/>
        <edge id="29496808#2.341" sampledSeconds="10.15" traveltime="1.14" overlapTraveltime="1.27" density="2.36" laneDensity="0.79" occupancy="0.35" waitingTime="0.00" timeLoss="0.61" speed="37.73" speedRelative="0.96" departed="0" arrived="8" entered="8" left="0" laneChangedFrom="0" laneChangedTo="0"/>
        <edge id="364638850" sampledSeconds="0.00" departed="0" arrived="0" entered="0" left="0" laneChangedFrom="0" laneChangedTo="0"/>
        <edge id="364638851" sampledSeconds="7.40" traveltime="6.01" overlapTraveltime="7.40" density="1.51" laneDensity="1.51" occupancy="0.68" waitingTime="0.00" timeLoss="4.51" speed="7.29" speedRelative="0.33" departed="0" arrived="0" entered="1" left="1" laneChangedFrom="0" laneChangedTo="0"/>
        <edge id="394700607" sampledSeconds="0.00" departed="0" arrived="0" entered="0" left="0" laneChangedFrom="0" laneChangedTo="0"/>
        <edge id="394700608" sampledSeconds="0.00" departed="0" arrived="0" entered="0" left="0" laneChangedFrom="0" laneChangedTo="0"/>
        <edge id="394700612" sampledSeconds="0.00" departed="0" arrived="0" entered="0" left="0" laneChangedFrom="0" laneChangedTo="0"/>
        <edge id="478181242" sampledSeconds="2.96" traveltime="1.23" overlapTraveltime="1.48" density="1.27" laneDensity="1.27" occupancy="0.52" waitingTime="0.00" timeLoss="0.16" speed="19.07" speedRelative="0.86" departed="0" arrived="0" entered="2" left="2" laneChangedFrom="0" laneChangedTo="0"/>
        <edge id="478181243" sampledSeconds="13.51" traveltime="4.43" overlapTraveltime="4.72" density="2.02" laneDensity="2.02" occupancy="0.94" waitingTime="0.00" timeLoss="2.98" speed="15.24" speedRelative="0.69" departed="0" arrived="0" entered="3" left="2" laneChangedFrom="0" laneChangedTo="0"/>
        <edge id="478190549" sampledSeconds="2.19" traveltime="0.88" overlapTraveltime="1.09" density="1.09" laneDensity="1.09" occupancy="0.43" waitingTime="0.00" timeLoss="0.06" speed="23.00" speedRelative="1.04" departed="0" arrived="0" entered="2" left="2" laneChangedFrom="0" laneChangedTo="0"/>
        <edge id="478966536" sampledSeconds="0.00" departed="0" arrived="0" entered="0" left="0" laneChangedFrom="0" laneChangedTo="0"/>
        <edge id="479199823" sampledSeconds="0.00" departed="0" arrived="0" entered="0" left="0" laneChangedFrom="0" laneChangedTo="0"/>
        <edge id="55083473#1.4.32" sampledSeconds="217.37" traveltime="7.28" overlapTraveltime="7.62" density="42.61" laneDensity="14.20" occupancy="6.92" waitingTime="0.00" timeLoss="168.67" speed="7.35" speedRelative="0.22" departed="33" arrived="0" entered="0" left="31" laneChangedFrom="0" laneChangedTo="0"/>
        <edge id="55083473#1.4.49" sampledSeconds="910.51" traveltime="58.09" overlapTraveltime="58.24" density="5.09" laneDensity="1.70" occupancy="0.85" waitingTime="0.00" timeLoss="66.26" speed="30.77" speedRelative="0.92" departed="0" arrived="0" entered="23" left="9" laneChangedFrom="9" laneChangedTo="9"/>
        <edge id="55083473#2" sampledSeconds="28.23" traveltime="3.00" overlapTraveltime="3.15" density="2.85" laneDensity="0.95" occupancy="0.45" waitingTime="0.00" timeLoss="0.58" speed="33.02" speedRelative="0.99" departed="0" arrived="9" entered="9" left="0" laneChangedFrom="0" laneChangedTo="0"/>
        <edge id="830650861#0" sampledSeconds="66.25" traveltime="4.18" overlapTraveltime="4.43" density="7.63" laneDensity="3.81" occupancy="1.79" waitingTime="0.00" timeLoss="15.19" speed="20.73" speedRelative="0.75" departed="0" arrived="0" entered="15" left="15" laneChangedFrom="4" laneChangedTo="4"/>
        <edge id="830650861#1" sampledSeconds="72.56" traveltime="5.97" overlapTraveltime="6.60" density="8.20" laneDensity="4.10" occupancy="1.92" waitingTime="0.00" timeLoss="36.13" speed="14.17" speedRelative="0.51" departed="0" arrived="0" entered="11" left="11" laneChangedFrom="2" laneChangedTo="2"/>
        <edge id="830650861#2" sampledSeconds="212.60" traveltime="26.01" overlapTraveltime="26.19" density="3.46" laneDensity="1.73" occupancy="0.85" waitingTime="0.00" timeLoss="33.61" speed="23.66" speedRelative="0.85" departed="0" arrived="0" entered="11" left="7" laneChangedFrom="3" laneChangedTo="3"/>
        <edge id="830650861#3" sampledSeconds="60.95" traveltime="10.30" overlapTraveltime="10.93" density="2.82" laneDensity="1.41" occupancy="0.68" waitingTime="0.00" timeLoss="17.94" speed="20.25" speedRelative="0.73" departed="0" arrived="0" entered="6" left="5" laneChangedFrom="0" laneChangedTo="0"/>
        <edge id="830650861#4" sampledSeconds="41.97" traveltime="8.22" overlapTraveltime="8.42" density="2.72" laneDensity="1.36" occupancy="0.65" waitingTime="0.00" timeLoss="13.99" speed="18.95" speedRelative="0.68" departed="0" arrived="0" entered="5" left="5" laneChangedFrom="0" laneChangedTo="0"/>
        <edge id="830650861#5" sampledSeconds="27.59" traveltime="7.22" overlapTraveltime="7.40" density="1.43" laneDensity="0.72" occupancy="0.35" waitingTime="0.00" timeLoss="1.40" speed="26.69" speedRelative="0.96" departed="0" arrived="2" entered="4" left="0" laneChangedFrom="0" laneChangedTo="0"/>
        <edge id="830650862" sampledSeconds="143.02" traveltime="9.32" overlapTraveltime="9.59" density="16.95" laneDensity="8.48" occupancy="4.18" waitingTime="0.00" timeLoss="94.71" speed="9.31" speedRelative="0.34" departed="18" arrived="0" entered="0" left="15" laneChangedFrom="0" laneChangedTo="0"/>
        <edge id="830653153" sampledSeconds="9.70" traveltime="3.05" overlapTraveltime="3.23" density="1.19" laneDensity="0.59" occupancy="0.28" waitingTime="0.00" timeLoss="0.24" speed="26.85" speedRelative="0.97" departed="0" arrived="3" entered="3" left="0" laneChangedFrom="0" laneChangedTo="0"/>
        <edge id="830653154#10" sampledSeconds="0.21" traveltime="0.01" overlapTraveltime="0.21" density="10.29" laneDensity="5.14" occupancy="0.10" waitingTime="0.00" timeLoss="0.01" speed="25.28" speedRelative="0.91" departed="0" arrived="0" entered="1" left="1" laneChangedFrom="0" laneChangedTo="0"/>
        <edge id="830653154#11" sampledSeconds="27.93" traveltime="9.12" overlapTraveltime="9.31" density="1.60" laneDensity="0.80" occupancy="0.38" waitingTime="0.00" timeLoss="8.39" speed="19.27" speedRelative="0.69" departed="0" arrived="0" entered="3" left="3" laneChangedFrom="0" laneChangedTo="0"/>
        <edge id="830653154#7" sampledSeconds="82.49" traveltime="13.93" overlapTraveltime="14.12" density="4.32" laneDensity="2.16" occupancy="1.07" waitingTime="0.00" timeLoss="39.35" speed="13.88" speedRelative="0.50" departed="6" arrived="0" entered="0" left="6" laneChangedFrom="0" laneChangedTo="0"/>
        <edge id="830653154#8" sampledSeconds="1.20" traveltime="0.01" overlapTraveltime="0.20" density="60.10" laneDensity="30.05" occupancy="0.58" waitingTime="0.00" timeLoss="0.03" speed="25.96" speedRelative="0.93" departed="0" arrived="0" entered="6" left="6" laneChangedFrom="0" laneChangedTo="0"/>
        <edge id="830653154#9" sampledSeconds="105.35" traveltime="40.07" overlapTraveltime="40.26" density="1.03" laneDensity="0.51" occupancy="0.26" waitingTime="0.00" timeLoss="2.52" speed="25.56" speedRelative="0.92" departed="0" arrived="0" entered="5" left="1" laneChangedFrom="0" laneChangedTo="0"/>
        <edge id="833484976" sampledSeconds="24.17" traveltime="7.35" overlapTraveltime="8.05" density="2.04" laneDensity="2.04" occupancy="0.96" waitingTime="0.00" timeLoss="6.70" speed="15.34" speedRelative="0.69" departed="0" arrived="0" entered="4" left="3" laneChangedFrom="0" laneChangedTo="0"/>
        <edge id="833484977" sampledSeconds="39.76" traveltime="10.21" overlapTraveltime="10.48" density="3.69" laneDensity="3.69" occupancy="1.83" waitingTime="0.00" timeLoss="22.12" speed="10.75" speedRelative="0.48" departed="4" arrived="0" entered="0" left="4" laneChangedFrom="0" laneChangedTo="0"/>
        <edge id="833484978" sampledSeconds="0.00" departed="0" arrived="0" entered="0" left="0" laneChangedFrom="0" laneChangedTo="0"/>
        <edge id="833484979" sampledSeconds="0.00" departed="0" arrived="0" entered="0" left="0" laneChangedFrom="0" laneChangedTo="0"/>
        <edge id="E0" sampledSeconds="10.54" traveltime="1.24" overlapTraveltime="1.51" density="4.89" laneDensity="4.89" occupancy="1.98" waitingTime="0.00" timeLoss="2.21" speed="17.63" speedRelative="0.79" departed="0" arrived="0" entered="7" left="7" laneChangedFrom="0" laneChangedTo="0"/>
    </interval>
    <interval begin="100.00" end="200.00" id="test_1">
        <edge id="-364638850" sampledSeconds="0.00" departed="0" arrived="0" entered="0" left="0" laneChangedFrom="0" laneChangedTo="0"/>
        <edge id="1154482313#0" sampledSeconds="0.00" departed="0" arrived="0" entered="0" left="0" laneChangedFrom="0" laneChangedTo="0"/>
        <edge id="1154482314#2" sampledSeconds="0.00" departed="0" arrived="0" entered="0" left="0" laneChangedFrom="0" laneChangedTo="0"/>
        <edge id="185495393" sampledSeconds="88.84" traveltime="17.61" overlapTraveltime="17.81" density="2.39" laneDensity="2.39" occupancy="1.17" waitingTime="0.00" timeLoss="17.54" speed="21.16" speedRelative="0.76" departed="0" arrived="5" entered="5" left="0" laneChangedFrom="0" laneChangedTo="0"/>
        <edge id="219627712" sampledSeconds="66.36" traveltime="9.27" overlapTraveltime="9.48" density="3.05" laneDensity="3.05" occupancy="1.49" waitingTime="0.00" timeLoss="1.79" speed="23.46" speedRelative="1.06" departed="0" arrived="0" entered="7" left="7" laneChangedFrom="0" laneChangedTo="0"/>
        <edge id="219627713.31.8" sampledSeconds="173.98" traveltime="35.08" overlapTraveltime="35.31" density="2.30" laneDensity="2.30" occupancy="1.14" waitingTime="0.00" timeLoss="5.35" speed="21.60" speedRelative="0.97" departed="0" arrived="0" entered="4" left="5" laneChangedFrom="0" laneChangedTo="0"/>
        <edge id="219628424" sampledSeconds="91.71" traveltime="6.47" overlapTraveltime="6.66" density="6.97" laneDensity="3.48" occupancy="1.67" waitingTime="0.00" timeLoss="26.50" speed="20.52" speedRelative="0.74" departed="0" arrived="0" entered="13" left="14" laneChangedFrom="0" laneChangedTo="0"/>
        <edge id="219628425#0" sampledSeconds="0.00" departed="0" arrived="0" entered="0" left="0" laneChangedFrom="0" laneChangedTo="0"/>
        <edge id="219628425#1" sampledSeconds="23.04" traveltime="7.47" overlapTraveltime="7.68" density="1.31" laneDensity="1.31" occupancy="0.64" waitingTime="0.00" timeLoss="0.55" speed="23.60" speedRelative="1.06" departed="0" arrived="0" entered="3" left="3" laneChangedFrom="0" laneChangedTo="0"/>
        <edge id="219628426#0" sampledSeconds="7.94" traveltime="1.08" overlapTraveltime="1.32" density="3.54" laneDensity="3.54" occupancy="1.45" waitingTime="0.00" timeLoss="0.55" speed="20.73" speedRelative="0.93" departed="0" arrived="0" entered="6" left="6" laneChangedFrom="0" laneChangedTo="0"/>
        <edge id="219628426#1" sampledSeconds="135.31" traveltime="21.66" overlapTraveltime="22.48" density="4.19" laneDensity="4.19" occupancy="2.05" waitingTime="18.00" timeLoss="46.97" speed="14.58" speedRelative="0.66" departed="0" arrived="0" entered="6" left="6" laneChangedFrom="0" laneChangedTo="0"/>
        <edge id="219628427" sampledSeconds="55.39" traveltime="10.84" overlapTraveltime="11.08" density="2.35" laneDensity="2.35" occupancy="1.15" waitingTime="0.00" timeLoss="1.74" speed="21.69" speedRelative="0.98" departed="0" arrived="0" entered="5" left="5" laneChangedFrom="0" laneChangedTo="0"/>
        <edge id="219628428" sampledSeconds="23.42" traveltime="3.66" overlapTraveltime="3.90" density="3.06" laneDensity="3.06" occupancy="1.43" waitingTime="0.00" timeLoss="1.45" speed="20.90" speedRelative="0.94" departed="0" arrived="0" entered="6" left="6" laneChangedFrom="0" laneChangedTo="0"/>
        <edge id="219628429#0" sampledSeconds="5.05" traveltime="0.98" overlapTraveltime="1.26" density="2.58" laneDensity="1.29" occupancy="0.51" waitingTime="0.00" timeLoss="1.09" speed="19.45" speedRelative="0.70" departed="0" arrived="0" entered="4" left="4" laneChangedFrom="0" laneChangedTo="0"/>
        <edge id="219628429#1" sampledSeconds="0.00" departed="0" arrived="0" entered="0" left="0" laneChangedFrom="0" laneChangedTo="0"/>
        <edge id="219628429#2" sampledSeconds="0.00" departed="0" arrived="0" entered="0" left="0" laneChangedFrom="0" laneChangedTo="0"/>
        <edge id="219628429#3" sampledSeconds="51.62" traveltime="3.56" overlapTraveltime="3.74" density="5.21" laneDensity="2.61" occupancy="1.24" waitingTime="0.00" timeLoss="2.30" speed="27.84" speedRelative="1.00" departed="0" arrived="0" entered="14" left="13" laneChangedFrom="0" laneChangedTo="0"/>
        <edge id="219628429#4" sampledSeconds="253.30" traveltime="12.92" overlapTraveltime="13.15" density="7.80" laneDensity="3.90" occupancy="1.91" waitingTime="0.00" timeLoss="32.13" speed="25.06" speedRelative="0.90" departed="0" arrived="0" entered="19" left="19" laneChangedFrom="2" laneChangedTo="2"/>
        <edge id="219628429#5" sampledSeconds="173.39" traveltime="12.00" overlapTraveltime="12.22" density="5.43" laneDensity="2.71" occupancy="1.33" waitingTime="0.00" timeLoss="10.09" speed="26.56" speedRelative="0.96" departed="0" arrived="0" entered="16" left="12" laneChangedFrom="0" laneChangedTo="0"/>
        <edge id="219628430" sampledSeconds="47.97" traveltime="15.78" overlapTraveltime="15.99" density="1.50" laneDensity="1.50" occupancy="0.73" waitingTime="0.00" timeLoss="7.63" speed="20.33" speedRelative="0.91" departed="0" arrived="0" entered="3" left="3" laneChangedFrom="0" laneChangedTo="0"/>
        <edge id="219628431" sampledSeconds="0.00" departed="0" arrived="0" entered="0" left="0" laneChangedFrom="0" laneChangedTo="0"/>
        <edge id="219628432" sampledSeconds="100.00" traveltime="13.27" overlapTraveltime="13.51" density="3.53" laneDensity="3.53" occupancy="1.74" waitingTime="0.00" timeLoss="3.42" speed="21.35" speedRelative="0.96" departed="0" arrived="0" entered="6" left="7" laneChangedFrom="0" laneChangedTo="0"/>
        <edge id="219628433" sampledSeconds="429.57" traveltime="64.44" overlapTraveltime="64.87" density="5.73" laneDensity="5.73" occupancy="2.86" waitingTime="174.00" timeLoss="199.83" speed="11.63" speedRelative="0.52" departed="0" arrived="0" entered="7" left="0" laneChangedFrom="0" laneChangedTo="0"/>
        <edge id="219628434" sampledSeconds="45.90" traveltime="10.36" overlapTraveltime="10.60" density="2.04" laneDensity="2.04" occupancy="0.99" waitingTime="0.00" timeLoss="2.05" speed="21.69" speedRelative="0.98" departed="0" arrived="0" entered="5" left="6" laneChangedFrom="0" laneChangedTo="0"/>
        <edge id="219822984#0" sampledSeconds="152.07" traveltime="9.95" overlapTraveltime="10.14" density="5.95" laneDensity="2.98" occupancy="1.45" waitingTime="0.00" timeLoss="17.64" speed="25.69" speedRelative="0.92" departed="0" arrived="0" entered="16" left="16" laneChangedFrom="0" laneChangedTo="0"/>
        <edge id="219822984#1" sampledSeconds="22.51" traveltime="2.99" overlapTraveltime="3.21" density="2.91" laneDensity="1.46" occupancy="0.68" waitingTime="0.00" timeLoss="0.86" speed="25.64" speedRelative="0.92" departed="0" arrived="0" entered="7" left="7" laneChangedFrom="1" laneChangedTo="1"/>
        <edge id="219822984#2" sampledSeconds="41.21" traveltime="5.58" overlapTraveltime="5.89" density="3.26" laneDensity="1.63" occupancy="0.78" waitingTime="0.00" timeLoss="5.66" speed="22.31" speedRelative="0.80" departed="0" arrived="0" entered="7" left="7" laneChangedFrom="1" laneChangedTo="1"/>
        <edge id="219822985#0" sampledSeconds="0.00" departed="0" arrived="0" entered="0" left="0" laneChangedFrom="0" laneChangedTo="0"/>
        <edge id="219822985#1" sampledSeconds="0.00" departed="0" arrived="0" entered="0" left="0" laneChangedFrom="0" laneChangedTo="0"/>
        <edge id="219822986#0" sampledSeconds="47.75" traveltime="8.92" overlapTraveltime="9.55" density="2.64" laneDensity="1.32" occupancy="0.63" waitingTime="0.00" timeLoss="11.78" speed="19.49" speedRelative="0.70" departed="0" arrived="0" entered="5" left="5" laneChangedFrom="0" laneChangedTo="0"/>
        <edge id="219822986#1" sampledSeconds="0.00" departed="0" arrived="0" entered="0" left="0" laneChangedFrom="0" laneChangedTo="0"/>
        <edge id="219822986#2" sampledSeconds="90.98" traveltime="8.07" overlapTraveltime="8.27" density="6.49" laneDensity="3.25" occupancy="1.55" waitingTime="0.00" timeLoss="36.64" speed="17.55" speedRelative="0.63" departed="0" arrived="0" entered="11" left="11" laneChangedFrom="7" laneChangedTo="7"/>
        <edge id="219822987" sampledSeconds="220.25" traveltime="38.42" overlapTraveltime="38.87" density="5.11" laneDensity="5.11" occupancy="2.55" waitingTime="98.00" timeLoss="119.66" speed="11.21" speedRelative="0.50" departed="0" arrived="0" entered="7" left="0" laneChangedFrom="0" laneChangedTo="0"/>
        <edge id="219822988" sampledSeconds="13.70" traveltime="2.49" overlapTraveltime="2.74" density="2.81" laneDensity="2.81" occupancy="1.27" waitingTime="0.00" timeLoss="1.77" speed="19.64" speedRelative="0.88" departed="0" arrived="0" entered="5" left="5" laneChangedFrom="0" laneChangedTo="0"/>
        <edge id="219822989" sampledSeconds="36.38" traveltime="14.73" overlapTraveltime="14.97" density="1.15" laneDensity="1.15" occupancy="0.57" waitingTime="0.00" timeLoss="1.19" speed="21.38" speedRelative="0.96" departed="0" arrived="0" entered="2" left="3" laneChangedFrom="0" laneChangedTo="0"/>